 Gaussian 16, Revision B.01,

 ----------------------------------------------------------------------
 # PBE1PBE gen pseudo=read int=(grid=ultrafine) empiricaldispersion=GD3
 BJ nmr=giao
 ----------------------------------------------------------------------

 -----
 title
 -----
 Symbolic Z-matrix:
 Charge =  0 Multiplicity = 1

 SCF Done:  E(RPBE1PBE) =  -3424.52120463     A.U. after   21 cycles

      1  Pd   Isotropic =  -162.8727   Anisotropy =   275.5378

      2  P    Isotropic =   238.5059   Anisotropy =   125.3708

      3  C    Isotropic =    50.5532   Anisotropy =   179.7415

      4  C    Isotropic =    38.6249   Anisotropy =   201.0307

      5  C    Isotropic =    51.0908   Anisotropy =   189.1285

      6  C    Isotropic =    48.8651   Anisotropy =   193.3695

      7  C    Isotropic =    54.0253   Anisotropy =   185.0320

      8  C    Isotropic =    43.5722   Anisotropy =   200.9136

      9  H    Isotropic =    23.7255   Anisotropy =     9.8218

     10  H    Isotropic =    23.8853   Anisotropy =     3.4736

     11  H    Isotropic =    21.9533   Anisotropy =    11.4460

     12  C    Isotropic =    44.5535   Anisotropy =   182.9403

     13  C    Isotropic =    47.3921   Anisotropy =   193.2402

     14  C    Isotropic =    53.4902   Anisotropy =   181.7159

     15  C    Isotropic =    49.4957   Anisotropy =   189.9797

     16  C    Isotropic =    52.6686   Anisotropy =   184.5013

     17  C    Isotropic =    36.7381   Anisotropy =   201.1027

     18  H    Isotropic =    22.3252   Anisotropy =    13.1866

     19  H    Isotropic =    23.7810   Anisotropy =     3.5624

     20  H    Isotropic =    24.1548   Anisotropy =    14.3930

     21  C    Isotropic =    41.0679   Anisotropy =   184.4561

     22  C    Isotropic =    51.4453   Anisotropy =   188.0714

     23  C    Isotropic =    52.0296   Anisotropy =   184.9150

     24  C    Isotropic =    67.1453   Anisotropy =   177.1024

     25  C    Isotropic =    22.9118   Anisotropy =   142.4258

     26  C    Isotropic =    47.7429   Anisotropy =   159.4034

     27  C    Isotropic =    47.8828   Anisotropy =   159.6187

     28  C    Isotropic =    22.8756   Anisotropy =   142.2408

     29  C    Isotropic =    67.1549   Anisotropy =   177.1551

     30  C    Isotropic =    52.1602   Anisotropy =   184.9871

     31  C    Isotropic =    51.4482   Anisotropy =   187.8567

     32  C    Isotropic =    41.0207   Anisotropy =   184.7909

     33  P    Isotropic =   238.5887   Anisotropy =   126.2657

     34  C    Isotropic =    50.6218   Anisotropy =   179.6791

     35  C    Isotropic =    43.4800   Anisotropy =   201.0261

     36  C    Isotropic =    53.9497   Anisotropy =   185.0884

     37  C    Isotropic =    48.8226   Anisotropy =   193.3707

     38  C    Isotropic =    51.0830   Anisotropy =   189.2189

     39  C    Isotropic =    38.5302   Anisotropy =   200.7179

     40  H    Isotropic =    22.0041   Anisotropy =    11.3495

     41  H    Isotropic =    23.8803   Anisotropy =     3.4243

     42  H    Isotropic =    23.7558   Anisotropy =     9.8660

     43  C    Isotropic =    44.5216   Anisotropy =   183.0805

     44  C    Isotropic =    36.7143   Anisotropy =   200.7532

     45  C    Isotropic =    52.6442   Anisotropy =   184.5675

     46  C    Isotropic =    49.5167   Anisotropy =   189.9834

     47  C    Isotropic =    53.5411   Anisotropy =   181.9322

     48  C    Isotropic =    47.5156   Anisotropy =   193.1325

     49  H    Isotropic =    24.1260   Anisotropy =    14.3763

     50  H    Isotropic =    23.7788   Anisotropy =     3.5704

     51  H    Isotropic =    22.3432   Anisotropy =    13.1903

     52  H    Isotropic =    24.9648   Anisotropy =    12.7673

     53  H    Isotropic =    24.5161   Anisotropy =     4.8414

     54  H    Isotropic =    24.7532   Anisotropy =     6.3121

     55  O    Isotropic =   205.2606   Anisotropy =   130.4377

     56  C    Isotropic =   114.7069   Anisotropy =    55.5068

     57  H    Isotropic =    27.7573   Anisotropy =     9.0946

     58  H    Isotropic =    26.9101   Anisotropy =     7.6186

     59  C    Isotropic =   157.0090   Anisotropy =    25.8398

     60  H    Isotropic =    29.9315   Anisotropy =    11.9406

     61  H    Isotropic =    29.6401   Anisotropy =     2.5939

     62  C    Isotropic =   157.0574   Anisotropy =    25.7262

     63  H    Isotropic =    29.9328   Anisotropy =    11.9475

     64  H    Isotropic =    29.6460   Anisotropy =     2.6331

     65  C    Isotropic =   114.7770   Anisotropy =    55.4769

     66  H    Isotropic =    27.7666   Anisotropy =     9.0639

     67  O    Isotropic =   204.8810   Anisotropy =   130.9361

     68  H    Isotropic =    26.9293   Anisotropy =     7.5755

     69  H    Isotropic =    24.7712   Anisotropy =     6.2943

     70  H    Isotropic =    24.5107   Anisotropy =     4.8568

     71  H    Isotropic =    24.9678   Anisotropy =    12.8104

     72  Cl   Isotropic =   842.7448   Anisotropy =   530.4794

     73  Cl   Isotropic =   841.7932   Anisotropy =   531.2707

     74  H    Isotropic =    24.0476   Anisotropy =     6.9846

     75  H    Isotropic =    23.6151   Anisotropy =     7.1328

     76  H    Isotropic =    23.8597   Anisotropy =     6.3229

     77  H    Isotropic =    24.0388   Anisotropy =     6.5176

     78  H    Isotropic =    23.6192   Anisotropy =     7.1436

     79  H    Isotropic =    24.0426   Anisotropy =     6.9698

     80  H    Isotropic =    24.0290   Anisotropy =     6.4282

     81  H    Isotropic =    23.8696   Anisotropy =     6.3323

 Normal termination of Gaussian 16 at Mon Nov  1 20:02:12 2021.
 Gaussian 16:  ES64L-G16RevB.01 20-Dec-2017

 ----------------------------------------------------------------------
 # PBE1PBE gen pseudo=read int=(grid=ultrafine) empiricaldispersion=GD3
 BJ pop=nbo guess=read geom=check
 ----------------------------------------------------------------------

 -----
 title
 -----
 Structure from the checkpoint file:  "R-C4-Tunephos_1_SPE.chk"
 Charge =  0 Multiplicity = 1

                         Standard orientation:
 ---------------------------------------------------------------------
 Center     Atomic      Atomic             Coordinates (Angstroms)
 Number     Number       Type             X           Y           Z
 ---------------------------------------------------------------------
      1         46           0       -2.267567    0.099641   -0.009005
      2         15           0       -0.795258   -1.650993    0.027475
      3          6           0       -0.160439   -2.139036    1.670759
      4          6           0       -0.962408   -1.861656    2.794825
      5          6           0       -0.520302   -2.236672    4.069692
      6          6           0        0.714670   -2.883773    4.227209
      7          6           0        1.509905   -3.163840    3.106373
      8          6           0        1.074990   -2.795978    1.826860
      9          1           0        1.711584   -2.981681    0.956715
     10          1           0        1.059239   -3.168852    5.226829
     11          1           0       -1.930298   -1.367753    2.651491
     12          6           0       -1.501376   -3.175896   -0.714308
     13          6           0       -1.058752   -4.450310   -0.318951
     14          6           0       -1.553088   -5.592980   -0.963612
     15          6           0       -2.480576   -5.468162   -2.006541
     16          6           0       -2.924544   -4.196666   -2.400655
     17          6           0       -2.445711   -3.052445   -1.752744
     18          1           0       -2.818332   -2.061284   -2.029341
     19          1           0       -2.867120   -6.362592   -2.505953
     20          1           0       -0.340481   -4.553377    0.499903
     21          6           0        0.688340   -1.342695   -1.038253
     22          6           0        0.772349   -1.983570   -2.291343
     23          6           0        1.844221   -1.716858   -3.148032
     24          6           0        2.846721   -0.812568   -2.782057
     25          6           0        2.765962   -0.164835   -1.541387
     26          6           0        1.688258   -0.419316   -0.654912
     27          6           0        1.716421    0.270838    0.666800
     28          6           0        2.767653   -0.071656    1.555287
     29          6           0        2.900840    0.569591    2.794814
     30          6           0        1.976871    1.555103    3.158057
     31          6           0        0.932447    1.909391    2.299174
     32          6           0        0.797659    1.276161    1.046740
     33         15           0       -0.645371    1.712292   -0.029771
     34          6           0        0.048542    2.141613   -1.665516
     35          6           0        1.329651    2.709290   -1.804122
     36          6           0        1.812414    3.033091   -3.078306
     37          6           0        1.020665    2.796458   -4.211602
     38          6           0       -0.258743    2.237740   -4.071879
     39          6           0       -0.749508    1.908552   -2.802196
     40          1           0       -1.751260    1.483333   -2.672991
     41          1           0        1.402657    3.046348   -5.207025
     42          1           0        1.961834    2.858266   -0.923685
     43          6           0       -1.223941    3.290919    0.709602
     44          6           0       -2.177151    3.243703    1.746246
     45          6           0       -2.563331    4.422386    2.394018
     46          6           0       -2.017648    5.654114    2.001124
     47          6           0       -1.081640    5.704104    0.959589
     48          6           0       -0.679644    4.525496    0.315284
     49          1           0        0.045297    4.570735   -0.502898
     50          1           0       -2.331769    6.576646    2.500213
     51          1           0       -2.628990    2.285505    2.021194
     52          1           0        0.224856    2.685207    2.598180
     53          1           0        2.072480    2.052831    4.128373
     54          1           0        3.703219    0.294601    3.483913
     55          8           0        3.572123   -1.105385    1.135900
     56          6           0        4.946039   -1.136495    1.548573
     57          1           0        5.267456   -2.168244    1.325844
     58          1           0        5.042888   -0.988613    2.640008
     59          6           0        5.800915   -0.129787    0.775466
     60          1           0        6.830819   -0.201518    1.170579
     61          1           0        5.444762    0.889892    1.013743
     62          6           0        5.793375   -0.356625   -0.757603
     63          1           0        6.826515   -0.369173   -1.150556
     64          1           0        5.355479   -1.343676   -0.997078
     65          6           0        5.024666    0.716742   -1.531372
     66          1           0        5.429147    1.718740   -1.308090
     67          8           0        3.652828    0.797358   -1.118868
     68          1           0        5.109711    0.561856   -2.622773
     69          1           0        3.669862   -0.604133   -3.470005
     70          1           0        1.899195   -2.219320   -4.119061
     71          1           0        0.002460   -2.696388   -2.593220
     72         17           0       -3.993251   -1.419023    0.623561
     73         17           0       -3.840954    1.768569   -0.659272
     74          1           0       -1.214585   -6.583782   -0.643052
     75          1           0       -3.663324   -4.094122   -3.201803
     76          1           0       -1.143005   -2.019790    4.943575
     77          1           0        2.477964   -3.661704    3.226742
     78          1           0       -3.309412    4.379474    3.193807
     79          1           0       -0.664283    6.664573    0.639690
     80          1           0        2.814634    3.461685   -3.184798
     81          1           0       -0.878406    2.054460   -4.955553
 ---------------------------------------------------------------------

 SCF Done:  E(RPBE1PBE) =  -3424.52120463     A.U. after    1 cycles

 The electronic state is 1-A.
 Alpha  occ. eigenvalues -- -101.60468-101.60458 -77.26091 -77.26091 -19.25124
 Alpha  occ. eigenvalues --  -19.25119 -10.30658 -10.30656 -10.29945 -10.29942
 Alpha  occ. eigenvalues --  -10.26284 -10.26275 -10.26136 -10.26105 -10.25315
 Alpha  occ. eigenvalues --  -10.25300 -10.24936 -10.24915 -10.24865 -10.24864
 Alpha  occ. eigenvalues --  -10.24765 -10.24763 -10.24676 -10.24674 -10.24512
 Alpha  occ. eigenvalues --  -10.24486 -10.24363 -10.24344 -10.24153 -10.24136
 Alpha  occ. eigenvalues --  -10.24101 -10.24100 -10.24012 -10.23986 -10.23896
 Alpha  occ. eigenvalues --  -10.23892 -10.23857 -10.23840 -10.23662 -10.23657
 Alpha  occ. eigenvalues --  -10.23589 -10.23586 -10.23487 -10.23485 -10.23265
 Alpha  occ. eigenvalues --  -10.23264  -9.42979  -9.42968  -7.16166  -7.16156
 Alpha  occ. eigenvalues --   -7.15714  -7.15703  -7.15654  -7.15643  -6.65296
 Alpha  occ. eigenvalues --   -6.65295  -4.78889  -4.78889  -4.78854  -4.78853
 Alpha  occ. eigenvalues --   -4.78648  -4.78647  -3.51508  -2.19216  -2.19092
 Alpha  occ. eigenvalues --   -2.15834  -1.10934  -1.10138  -0.91127  -0.89233
 Alpha  occ. eigenvalues --   -0.88925  -0.88666  -0.88224  -0.88103  -0.84540
 Alpha  occ. eigenvalues --   -0.82160  -0.80899  -0.80269  -0.79178  -0.77778
 Alpha  occ. eigenvalues --   -0.77687  -0.77666  -0.77564  -0.77091  -0.77005
 Alpha  occ. eigenvalues --   -0.76948  -0.76893  -0.74263  -0.73298  -0.72597
 Alpha  occ. eigenvalues --   -0.70211  -0.69167  -0.68459  -0.65664  -0.65352
 Alpha  occ. eigenvalues --   -0.63356  -0.63332  -0.62945  -0.62722  -0.62247
 Alpha  occ. eigenvalues --   -0.62110  -0.61904  -0.61565  -0.60289  -0.58755
 Alpha  occ. eigenvalues --   -0.57900  -0.56395  -0.54392  -0.53967  -0.53872
 Alpha  occ. eigenvalues --   -0.52886  -0.52401  -0.52270  -0.52091  -0.51784
 Alpha  occ. eigenvalues --   -0.50959  -0.49273  -0.48739  -0.47925  -0.47877
 Alpha  occ. eigenvalues --   -0.47751  -0.47531  -0.47085  -0.47028  -0.46760
 Alpha  occ. eigenvalues --   -0.46549  -0.46319  -0.46109  -0.45429  -0.44503
 Alpha  occ. eigenvalues --   -0.44231  -0.44125  -0.44049  -0.43595  -0.43570
 Alpha  occ. eigenvalues --   -0.43209  -0.42992  -0.42808  -0.41424  -0.41298
 Alpha  occ. eigenvalues --   -0.41155  -0.40873  -0.40323  -0.39532  -0.38870
 Alpha  occ. eigenvalues --   -0.38769  -0.38620  -0.38363  -0.38021  -0.37673
 Alpha  occ. eigenvalues --   -0.37549  -0.36923  -0.36851  -0.36428  -0.36391
 Alpha  occ. eigenvalues --   -0.36099  -0.36047  -0.35835  -0.35527  -0.35275
 Alpha  occ. eigenvalues --   -0.34729  -0.34709  -0.33601  -0.33436  -0.32415
 Alpha  occ. eigenvalues --   -0.31240  -0.31171  -0.29896  -0.29621  -0.29307
 Alpha  occ. eigenvalues --   -0.28062  -0.27591  -0.27507  -0.27277  -0.27106
 Alpha  occ. eigenvalues --   -0.26952  -0.26698  -0.26221  -0.25813  -0.25732
 Alpha  occ. eigenvalues --   -0.25568  -0.24262  -0.24213  -0.23084  -0.22529
 Alpha  occ. eigenvalues --   -0.22383
 Alpha virt. eigenvalues --   -0.07960  -0.04216  -0.04101  -0.03962  -0.03507
 Alpha virt. eigenvalues --   -0.02733  -0.02578  -0.01828  -0.01455  -0.01328
 Alpha virt. eigenvalues --   -0.01211  -0.00508  -0.00246   0.01512   0.01806

 Mulliken charges:
               1
     1  Pd   0.038204
     2  P    0.210149
     3  C    0.070662
     4  C   -0.181792
     5  C   -0.120307
     6  C   -0.103879
     7  C   -0.144150
     8  C   -0.131457
     9  H    0.154962
    10  H    0.119159
    11  H    0.180639
    12  C    0.035844
    13  C   -0.140525
    14  C   -0.155224
    15  C   -0.094501
    16  C   -0.122101
    17  C   -0.141444
    18  H    0.181180
    19  H    0.120856
    20  H    0.142493
    21  C    0.007209
    22  C   -0.170942
    23  C   -0.165002
    24  C   -0.242937
    25  C    0.256191
    26  C    0.040081
    27  C    0.043802
    28  C    0.252759
    29  C   -0.239731
    30  C   -0.166253
    31  C   -0.167773
    32  C   -0.001797
    33  P    0.212841
    34  C    0.073524
    35  C   -0.136690
    36  C   -0.139422
    37  C   -0.107162
    38  C   -0.117430
    39  C   -0.184185
    40  H    0.183781
    41  H    0.119031
    42  H    0.154434
    43  C    0.033666
    44  C   -0.139326
    45  C   -0.121229
    46  C   -0.094673
    47  C   -0.155507
    48  C   -0.141209
    49  H    0.143264
    50  H    0.120851
    51  H    0.181971
    52  H    0.154710
    53  H    0.119890
    54  H    0.103428
    55  O   -0.256554
    56  C   -0.162196
    57  H    0.132131
    58  H    0.118391
    59  C   -0.168685
    60  H    0.120934
    61  H    0.128906
    62  C   -0.168058
    63  H    0.120946
    64  H    0.128813
    65  C   -0.162914
    66  H    0.131942
    67  O   -0.256191
    68  H    0.118446
    69  H    0.103313
    70  H    0.119830
    71  H    0.154944
    72  Cl  -0.399666
    73  Cl  -0.397433
    74  H    0.118598
    75  H    0.125289
    76  H    0.126295
    77  H    0.112051
    78  H    0.125247
    79  H    0.118570
    80  H    0.111997
    81  H    0.126127
 Sum of Mulliken charges =  -0.00000

 Dipole moment (field-independent basis, Debye):
    X=             14.9796    Y=             -0.6524    Z=              0.0506  Tot=             14.9939
 Quadrupole moment (field-independent basis, Debye-Ang):
   XX=           -320.8471   YY=           -292.8425   ZZ=           -279.2674
   XY=              1.4323   XZ=             -0.0017   YZ=              7.8282

 Summary of Natural Population Analysis:

                                       Natural Population
                Natural  -----------------------------------------------
    Atom  No    Charge         Core      Valence    Rydberg      Total
 -----------------------------------------------------------------------
     Pd    1   -0.20084     35.98846    10.18525    0.02713    46.20084
      P    2    1.20078      9.99556     3.74995    0.05370    13.79922
      C    3   -0.37369      1.99901     4.33820    0.03648     6.37369
      C    4   -0.17625      1.99911     4.15793    0.01921     6.17625
      C    5   -0.20856      1.99921     4.19159    0.01776     6.20856
      C    6   -0.19653      1.99922     4.17933    0.01797     6.19653
      C    7   -0.21881      1.99920     4.20083    0.01878     6.21881
      C    8   -0.20209      1.99910     4.18137    0.02162     6.20209
      H    9    0.23594      0.00000     0.76193    0.00213     0.76406
      H   10    0.21870      0.00000     0.78014    0.00116     0.78130
      H   11    0.25834      0.00000     0.74028    0.00138     0.74166
      C   12   -0.34793      1.99901     4.31202    0.03690     6.34793
      C   13   -0.20066      1.99909     4.18191    0.01965     6.20066
      C   14   -0.21303      1.99921     4.19615    0.01767     6.21303
      C   15   -0.19769      1.99922     4.18052    0.01796     6.19769
      C   16   -0.21196      1.99921     4.19439    0.01836     6.21196
      C   17   -0.17298      1.99910     4.15485    0.01903     6.17298
      H   18    0.24587      0.00000     0.75282    0.00131     0.75413
      H   19    0.21961      0.00000     0.77922    0.00117     0.78039
      H   20    0.22836      0.00000     0.76994    0.00170     0.77164
      C   21   -0.31499      1.99893     4.28269    0.03337     6.31499
      C   22   -0.22567      1.99911     4.20702    0.01954     6.22567
      C   23   -0.18114      1.99922     4.16439    0.01753     6.18114
      C   24   -0.27714      1.99905     4.26026    0.01782     6.27714
      C   25    0.32357      1.99866     3.65348    0.02429     5.67643
      C   26   -0.07923      1.99887     4.05230    0.02806     6.07923
      C   27   -0.07906      1.99887     4.05213    0.02805     6.07906
      C   28    0.32339      1.99866     3.65375    0.02420     5.67661
      C   29   -0.27715      1.99905     4.26028    0.01782     6.27715
      C   30   -0.18119      1.99922     4.16444    0.01753     6.18119
      C   31   -0.22561      1.99911     4.20696    0.01953     6.22561
      C   32   -0.31500      1.99893     4.28267    0.03340     6.31500
      P   33    1.20141      9.99556     3.74925    0.05378    13.79859
      C   34   -0.37386      1.99901     4.33829    0.03656     6.37386
      C   35   -0.20152      1.99910     4.18078    0.02164     6.20152
      C   36   -0.21885      1.99920     4.20086    0.01879     6.21885
      C   37   -0.19657      1.99922     4.17937    0.01797     6.19657
      C   38   -0.20858      1.99921     4.19161    0.01776     6.20858
      C   39   -0.17535      1.99911     4.15701    0.01923     6.17535
      H   40    0.25764      0.00000     0.74098    0.00137     0.74236
      H   41    0.21871      0.00000     0.78013    0.00116     0.78129
      H   42    0.23548      0.00000     0.76240    0.00212     0.76452
      C   43   -0.34756      1.99901     4.31164    0.03691     6.34756
      C   44   -0.17320      1.99910     4.15507    0.01903     6.17320
      C   45   -0.21178      1.99921     4.19421    0.01836     6.21178
      C   46   -0.19779      1.99922     4.18061    0.01796     6.19779
      C   47   -0.21281      1.99921     4.19593    0.01767     6.21281
      C   48   -0.20077      1.99909     4.18203    0.01964     6.20077
      H   49    0.22833      0.00000     0.76997    0.00170     0.77167
      H   50    0.21962      0.00000     0.77922    0.00117     0.78038
      H   51    0.24554      0.00000     0.75315    0.00131     0.75446
      H   52    0.24136      0.00000     0.75686    0.00178     0.75864
      H   53    0.22303      0.00000     0.77581    0.00116     0.77697
      H   54    0.22229      0.00000     0.77603    0.00168     0.77771
      O   55   -0.48201      1.99975     6.45858    0.02369     8.48201
      C   56   -0.07241      1.99926     4.05504    0.01812     6.07241
      H   57    0.19495      0.00000     0.80364    0.00140     0.80505
      H   58    0.17925      0.00000     0.81895    0.00181     0.82075
      C   59   -0.44216      1.99943     4.42859    0.01413     6.44216
      H   60    0.22134      0.00000     0.77748    0.00118     0.77866
      H   61    0.21817      0.00000     0.77980    0.00203     0.78183
      C   62   -0.44210      1.99943     4.42854    0.01412     6.44210
      H   63    0.22131      0.00000     0.77751    0.00118     0.77869
      H   64    0.21815      0.00000     0.77982    0.00202     0.78185
      C   65   -0.07242      1.99926     4.05505    0.01812     6.07242
      H   66    0.19487      0.00000     0.80372    0.00141     0.80513
      O   67   -0.48153      1.99975     6.45805    0.02373     8.48153
      H   68    0.17936      0.00000     0.81884    0.00181     0.82064
      H   69    0.22233      0.00000     0.77599    0.00168     0.77767
      H   70    0.22301      0.00000     0.77583    0.00116     0.77699
      H   71    0.24135      0.00000     0.75686    0.00178     0.75865
     Cl   72   -0.42456      9.99965     7.41628    0.00863    17.42456
     Cl   73   -0.42382      9.99965     7.41555    0.00863    17.42382
      H   74    0.21988      0.00000     0.77886    0.00126     0.78012
      H   75    0.22460      0.00000     0.77417    0.00124     0.77540
      H   76    0.22429      0.00000     0.77455    0.00116     0.77571
      H   77    0.21861      0.00000     0.78011    0.00128     0.78139
      H   78    0.22460      0.00000     0.77416    0.00124     0.77540
      H   79    0.21986      0.00000     0.77888    0.00126     0.78014
      H   80    0.21863      0.00000     0.78009    0.00128     0.78137
      H   81    0.22428      0.00000     0.77456    0.00116     0.77572
 =======================================================================
   * Total *   -0.00000    159.94284   238.93968    1.11749   400.00000

 Normal termination of Gaussian 16 at Mon Nov  1 20:06:34 2021.
