 Gaussian 16, Revision B.01,

 ----------------------------------------------------------------------
 # PBE1PBE/def2TZVP int=(grid=ultrafine) empiricaldispersion=GD3BJ nmr=
 giao
 ----------------------------------------------------------------------

 -----
 title
 -----
 Symbolic Z-matrix:
 Charge =  0 Multiplicity = 1

 SCF Done:  E(RPBE1PBE) =  -2376.32761083     A.U. after   15 cycles

      1  P    Isotropic =   291.3167   Anisotropy =    55.8165

      2  C    Isotropic =    42.2099   Anisotropy =   206.0871

      3  C    Isotropic =    43.6021   Anisotropy =   186.5007

      4  C    Isotropic =    52.4900   Anisotropy =   186.2040

      5  C    Isotropic =    51.5284   Anisotropy =   189.3764

      6  C    Isotropic =    52.3296   Anisotropy =   187.2809

      7  C    Isotropic =    41.3430   Anisotropy =   201.8210

      8  H    Isotropic =    23.6578   Anisotropy =     9.7480

      9  H    Isotropic =    24.1015   Anisotropy =     3.7518

     10  H    Isotropic =    23.6152   Anisotropy =     8.1379

     11  C    Isotropic =    40.0815   Anisotropy =   205.5156

     12  C    Isotropic =    43.4397   Anisotropy =   196.1981

     13  C    Isotropic =    50.7117   Anisotropy =   185.7841

     14  C    Isotropic =    51.9676   Anisotropy =   186.4008

     15  C    Isotropic =    52.8283   Anisotropy =   182.8623

     16  C    Isotropic =    42.9989   Anisotropy =   183.5643

     17  H    Isotropic =    23.1656   Anisotropy =    10.0967

     18  H    Isotropic =    23.8924   Anisotropy =     3.7962

     19  H    Isotropic =    23.9815   Anisotropy =    14.7148

     20  C    Isotropic =    36.8930   Anisotropy =   189.8686

     21  C    Isotropic =    54.1147   Anisotropy =   183.5632

     22  C    Isotropic =    52.1465   Anisotropy =   182.5890

     23  C    Isotropic =    64.9603   Anisotropy =   165.7856

     24  C    Isotropic =    17.6447   Anisotropy =   145.0247

     25  C    Isotropic =    49.1306   Anisotropy =   160.7945

     26  C    Isotropic =    48.0190   Anisotropy =   162.9749

     27  C    Isotropic =    23.5436   Anisotropy =   142.1180

     28  C    Isotropic =    68.1178   Anisotropy =   173.4701

     29  C    Isotropic =    52.8901   Anisotropy =   182.4641

     30  C    Isotropic =    55.1525   Anisotropy =   181.8789

     31  C    Isotropic =    36.1170   Anisotropy =   192.0884

     32  P    Isotropic =   290.0557   Anisotropy =    57.2140

     33  C    Isotropic =    42.5511   Anisotropy =   205.4142

     34  C    Isotropic =    41.4008   Anisotropy =   201.6498

     35  C    Isotropic =    51.9953   Anisotropy =   187.5364

     36  C    Isotropic =    51.5425   Anisotropy =   189.0000

     37  C    Isotropic =    52.5424   Anisotropy =   185.9574

     38  C    Isotropic =    43.8087   Anisotropy =   185.9947

     39  H    Isotropic =    23.6299   Anisotropy =     8.2580

     40  H    Isotropic =    24.0953   Anisotropy =     3.8277

     41  H    Isotropic =    23.5819   Anisotropy =     9.7006

     42  C    Isotropic =    40.0133   Anisotropy =   205.7276

     43  C    Isotropic =    43.0377   Anisotropy =   183.6156

     44  C    Isotropic =    52.8303   Anisotropy =   182.7461

     45  C    Isotropic =    51.9105   Anisotropy =   186.3107

     46  C    Isotropic =    50.6842   Anisotropy =   185.6210

     47  C    Isotropic =    43.3174   Anisotropy =   196.3447

     48  H    Isotropic =    23.9479   Anisotropy =    14.6075

     49  H    Isotropic =    23.8849   Anisotropy =     3.7944

     50  H    Isotropic =    23.1384   Anisotropy =    10.0139

     51  H    Isotropic =    25.2037   Anisotropy =    12.5407

     52  H    Isotropic =    24.6832   Anisotropy =     4.7353

     53  H    Isotropic =    25.0503   Anisotropy =     6.3898

     54  O    Isotropic =   210.0413   Anisotropy =   131.6023

     55  C    Isotropic =   116.5067   Anisotropy =    70.0662

     56  H    Isotropic =    27.3853   Anisotropy =     7.9384

     57  H    Isotropic =    26.7892   Anisotropy =     8.5605

     58  C    Isotropic =   160.7277   Anisotropy =    21.2322

     59  H    Isotropic =    30.1786   Anisotropy =    10.9582

     60  H    Isotropic =    29.0662   Anisotropy =     7.4415

     61  C    Isotropic =   154.7801   Anisotropy =    13.0448

     62  H    Isotropic =    29.3631   Anisotropy =     9.2810

     63  H    Isotropic =    29.9354   Anisotropy =    11.5068

     64  C    Isotropic =   111.3738   Anisotropy =    74.1792

     65  H    Isotropic =    26.8959   Anisotropy =     8.2274

     66  O    Isotropic =   221.7035   Anisotropy =    96.8893

     67  H    Isotropic =    27.6061   Anisotropy =     6.1355

     68  H    Isotropic =    24.9263   Anisotropy =     6.4258

     69  H    Isotropic =    24.6535   Anisotropy =     4.8228

     70  H    Isotropic =    25.1872   Anisotropy =    12.5667

     71  H    Isotropic =    24.0002   Anisotropy =     7.1761

     72  H    Isotropic =    23.7074   Anisotropy =     5.7761

     73  H    Isotropic =    24.1218   Anisotropy =     5.0200

     74  H    Isotropic =    24.0390   Anisotropy =     6.6643

     75  H    Isotropic =    23.6948   Anisotropy =     5.7442

     76  H    Isotropic =    23.9904   Anisotropy =     7.1712

     77  H    Isotropic =    23.9970   Anisotropy =     6.9608

     78  H    Isotropic =    24.1244   Anisotropy =     4.9933

 Normal termination of Gaussian 16 at Mon Nov  1 19:15:41 2021.
 Gaussian 16:  ES64L-G16RevB.01 20-Dec-2017

 ----------------------------------------------------------------------
 # PBE1PBE/def2TZVP int=(grid=ultrafine) empiricaldispersion=GD3BJ pop=
 nbo guess=read geom=check
 ----------------------------------------------------------------------

 -----
 title
 -----
 Structure from the checkpoint file:  "R-C4-Tunephos_2_SPE_NoPd.chk"
 Charge =  0 Multiplicity = 1

                         Standard orientation:
 ---------------------------------------------------------------------
 Center     Atomic      Atomic             Coordinates (Angstroms)
 Number     Number       Type             X           Y           Z
 ---------------------------------------------------------------------
      1         15           0       -1.829119   -1.301270   -0.241404
      2          6           0       -2.142900   -0.397094   -1.799333
      3          6           0       -1.971151   -1.098695   -3.008271
      4          6           0       -2.229828   -0.454672   -4.224985
      5          6           0       -2.655557    0.881957   -4.240579
      6          6           0       -2.828357    1.578971   -3.035669
      7          6           0       -2.575335    0.943032   -1.813838
      8          1           0       -2.677352    1.498591   -0.876314
      9          1           0       -2.850588    1.382955   -5.194618
     10          1           0       -1.650682   -2.146491   -2.977086
     11          6           0       -3.479475   -1.846529    0.354646
     12          6           0       -4.645351   -1.141073    0.007880
     13          6           0       -5.881393   -1.527321    0.544644
     14          6           0       -5.957271   -2.609246    1.432144
     15          6           0       -4.794783   -3.314974    1.777419
     16          6           0       -3.559061   -2.943496    1.235238
     17          1           0       -2.655366   -3.513983    1.470670
     18          1           0       -6.924661   -2.910333    1.847288
     19          1           0       -4.592371   -0.300487   -0.690504
     20          6           0       -1.348891   -0.032176    1.021640
     21          6           0       -2.001917   -0.062232    2.270029
     22          6           0       -1.652027    0.841725    3.277869
     23          6           0       -0.663683    1.801961    3.050281
     24          6           0       -0.007130    1.838738    1.811422
     25          6           0       -0.317764    0.913832    0.786410
     26          6           0        0.425511    0.998064   -0.503423
     27          6           0        0.303693    2.176840   -1.282777
     28          6           0        0.936892    2.282923   -2.531407
     29          6           0        1.717570    1.225435   -3.003508
     30          6           0        1.892603    0.073855   -2.231397
     31          6           0        1.255100   -0.048095   -0.980957
     32         15           0        1.473143   -1.636621   -0.050655
     33          6           0        1.925466   -1.186546    1.662557
     34          6           0        2.581299    0.020646    1.971824
     35          6           0        2.927259    0.304164    3.298858
     36          6           0        2.626641   -0.614151    4.315511
     37          6           0        1.979302   -1.819625    4.005627
     38          6           0        1.624851   -2.110492    2.682061
     39          1           0        1.129730   -3.052922    2.420839
     40          1           0        2.894443   -0.387939    5.352967
     41          1           0        2.785962    0.753609    1.185098
     42          6           0        3.005501   -2.321844   -0.798787
     43          6           0        2.900039   -3.193699   -1.900415
     44          6           0        4.057135   -3.649425   -2.542841
     45          6           0        5.322033   -3.254455   -2.081819
     46          6           0        5.428316   -2.398658   -0.977082
     47          6           0        4.273806   -1.927926   -0.336470
     48          1           0        4.361825   -1.266125    0.530423
     49          1           0        6.225754   -3.623181   -2.577983
     50          1           0        1.912448   -3.528988   -2.231568
     51          1           0        2.532290   -0.730909   -2.598952
     52          1           0        2.204939    1.304498   -3.980421
     53          1           0        0.812306    3.183260   -3.138106
     54          8           0       -0.498890    3.171354   -0.771094
     55          6           0       -0.099800    4.532375   -1.042743
     56          1           0       -0.882651    5.140218   -0.557982
     57          1           0       -0.155299    4.737423   -2.128683
     58          6           0        1.297575    4.864211   -0.502897
     59          1           0        1.659708    5.770947   -1.021175
     60          1           0        1.978267    4.049091   -0.802985
     61          6           0        1.405441    5.093307    1.018696
     62          1           0        2.472314    5.067200    1.304390
     63          1           0        1.039201    6.105398    1.277163
     64          6           0        0.621491    4.117561    1.891273
     65          1           0        0.838310    4.316230    2.959637
     66          8           0        0.979725    2.763718    1.550187
     67          1           0       -0.466367    4.242784    1.737649
     68          1           0       -0.383017    2.511459    3.833626
     69          1           0       -2.160064    0.799328    4.246459
     70          1           0       -2.794082   -0.791314    2.451955
     71          1           0       -6.787944   -0.982257    0.261678
     72          1           0       -4.850632   -4.172307    2.455633
     73          1           0       -2.095510   -1.000303   -5.164514
     74          1           0       -3.150414    2.625630   -3.043818
     75          1           0        3.968399   -4.332254   -3.393722
     76          1           0        6.413610   -2.098550   -0.605406
     77          1           0        3.420347    1.252231    3.537514
     78          1           0        1.745000   -2.537754    4.798004
 ---------------------------------------------------------------------

 SCF Done:  E(RPBE1PBE) =  -2376.32761083     A.U. after    1 cycles

 The electronic state is 1-A.
 Alpha  occ. eigenvalues --  -77.19074 -77.19060 -19.23022 -19.22509 -10.28300
 Alpha  occ. eigenvalues --  -10.28295 -10.27953 -10.27806 -10.23806 -10.23772
 Alpha  occ. eigenvalues --  -10.23638 -10.23585 -10.23416 -10.23409 -10.23323
 Alpha  occ. eigenvalues --  -10.23233 -10.23194 -10.23072 -10.23060 -10.23044
 Alpha  occ. eigenvalues --  -10.23038 -10.23026 -10.22960 -10.22949 -10.22834
 Alpha  occ. eigenvalues --  -10.22829 -10.22825 -10.22793 -10.22754 -10.22743
 Alpha  occ. eigenvalues --  -10.22684 -10.22680 -10.22644 -10.22589 -10.22572
 Alpha  occ. eigenvalues --  -10.22536 -10.22496 -10.22489 -10.22448 -10.22424
 Alpha  occ. eigenvalues --  -10.22225 -10.22104 -10.21674 -10.21640  -6.58696
 Alpha  occ. eigenvalues --   -6.58682  -4.72284  -4.72280  -4.72270  -4.72266
 Alpha  occ. eigenvalues --   -4.71833  -4.71818  -1.08682  -1.07612  -0.88661
 Alpha  occ. eigenvalues --   -0.87742  -0.87501  -0.87105  -0.87028  -0.86172
 Alpha  occ. eigenvalues --   -0.82711  -0.79739  -0.78587  -0.78174  -0.76850
 Alpha  occ. eigenvalues --   -0.76532  -0.76519  -0.76197  -0.76129  -0.75816
 Alpha  occ. eigenvalues --   -0.75764  -0.75341  -0.74891  -0.72062  -0.68107
 Alpha  occ. eigenvalues --   -0.66652  -0.65728  -0.63382  -0.62439  -0.62048
 Alpha  occ. eigenvalues --   -0.61997  -0.61556  -0.61493  -0.61091  -0.60924
 Alpha  occ. eigenvalues --   -0.60365  -0.59531  -0.58159  -0.56883  -0.55764
 Alpha  occ. eigenvalues --   -0.54088  -0.52813  -0.52598  -0.52496  -0.51418
 Alpha  occ. eigenvalues --   -0.50736  -0.50405  -0.49923  -0.49179  -0.48435
 Alpha  occ. eigenvalues --   -0.47116  -0.46581  -0.46412  -0.46164  -0.46058
 Alpha  occ. eigenvalues --   -0.45968  -0.45965  -0.45863  -0.45438  -0.45356
 Alpha  occ. eigenvalues --   -0.45052  -0.43849  -0.43225  -0.43093  -0.43065
 Alpha  occ. eigenvalues --   -0.42718  -0.42650  -0.41973  -0.41818  -0.41621
 Alpha  occ. eigenvalues --   -0.41076  -0.41051  -0.39422  -0.39251  -0.38970
 Alpha  occ. eigenvalues --   -0.38566  -0.38128  -0.37789  -0.37278  -0.37071
 Alpha  occ. eigenvalues --   -0.36930  -0.36330  -0.35969  -0.35660  -0.35329
 Alpha  occ. eigenvalues --   -0.35276  -0.35104  -0.34974  -0.34903  -0.33967
 Alpha  occ. eigenvalues --   -0.33595  -0.33314  -0.32676  -0.32351  -0.30893
 Alpha  occ. eigenvalues --   -0.30176  -0.28810  -0.28038  -0.26706  -0.26658
 Alpha  occ. eigenvalues --   -0.26452  -0.26447  -0.26107  -0.26017  -0.25732
 Alpha  occ. eigenvalues --   -0.25194  -0.23721  -0.22390  -0.21838  -0.18574
 Alpha virt. eigenvalues --   -0.03088  -0.02739  -0.02472  -0.01675  -0.01533
 Alpha virt. eigenvalues --   -0.01096  -0.00806  -0.00620   0.00105   0.00386
 Alpha virt. eigenvalues --    0.01093   0.01767   0.03324   0.04946   0.05419

 Mulliken charges:
               1
     1  P    0.031032
     2  C    0.154019
     3  C   -0.204512
     4  C   -0.114316
     5  C   -0.111445
     6  C   -0.139408
     7  C   -0.150439
     8  H    0.152541
     9  H    0.113220
    10  H    0.122776
    11  C    0.058088
    12  C   -0.118524
    13  C   -0.151545
    14  C   -0.101032
    15  C   -0.110942
    16  C   -0.208248
    17  H    0.125852
    18  H    0.117638
    19  H    0.139465
    20  C   -0.030991
    21  C   -0.178884
    22  C   -0.168408
    23  C   -0.218626
    24  C    0.225122
    25  C    0.068727
    26  C    0.072124
    27  C    0.219120
    28  C   -0.224672
    29  C   -0.167062
    30  C   -0.188600
    31  C   -0.008031
    32  P    0.028874
    33  C    0.157165
    34  C   -0.153374
    35  C   -0.137584
    36  C   -0.112186
    37  C   -0.113047
    38  C   -0.206800
    39  H    0.122316
    40  H    0.113274
    41  H    0.154780
    42  C    0.058496
    43  C   -0.207858
    44  C   -0.111719
    45  C   -0.100275
    46  C   -0.152602
    47  C   -0.117208
    48  H    0.139344
    49  H    0.117676
    50  H    0.126014
    51  H    0.137926
    52  H    0.108704
    53  H    0.097095
    54  O   -0.270026
    55  C   -0.134411
    56  H    0.120307
    57  H    0.121649
    58  C   -0.165818
    59  H    0.112634
    60  H    0.145959
    61  C   -0.233561
    62  H    0.109518
    63  H    0.109045
    64  C   -0.084172
    65  H    0.111004
    66  O   -0.282284
    67  H    0.123164
    68  H    0.105908
    69  H    0.109198
    70  H    0.138571
    71  H    0.115641
    72  H    0.117331
    73  H    0.113388
    74  H    0.109137
    75  H    0.117248
    76  H    0.115698
    77  H    0.108426
    78  H    0.113393
 Sum of Mulliken charges =  -0.00000

 Dipole moment (field-independent basis, Debye):
    X=              0.3629    Y=              3.7424    Z=              0.1144  Tot=              3.7617
 Quadrupole moment (field-independent basis, Debye-Ang):
   XX=           -260.5305   YY=           -244.5014   ZZ=           -248.1933
   XY=              1.9559   XZ=             -4.7588   YZ=             -0.5154

 Summary of Natural Population Analysis:

                                       Natural Population
                Natural  -----------------------------------------------
    Atom  No    Charge         Core      Valence    Rydberg      Total
 -----------------------------------------------------------------------
      P    1    0.84304      9.99779     4.12863    0.03055    14.15696
      C    2   -0.33456      1.99905     4.30285    0.03266     6.33456
      C    3   -0.19668      1.99911     4.17738    0.02019     6.19668
      C    4   -0.21302      1.99921     4.19621    0.01760     6.21302
      C    5   -0.20991      1.99922     4.19255    0.01815     6.20991
      C    6   -0.21524      1.99921     4.19707    0.01896     6.21524
      C    7   -0.20877      1.99910     4.18847    0.02120     6.20877
      H    8    0.23523      0.00000     0.76261    0.00216     0.76477
      H    9    0.21548      0.00000     0.78335    0.00117     0.78452
      H   10    0.22452      0.00000     0.77378    0.00170     0.77548
      C   11   -0.32617      1.99905     4.29501    0.03210     6.32617
      C   12   -0.20276      1.99910     4.18453    0.01913     6.20276
      C   13   -0.21041      1.99921     4.19333    0.01787     6.21041
      C   14   -0.21272      1.99922     4.19528    0.01822     6.21272
      C   15   -0.21668      1.99921     4.19892    0.01855     6.21668
      C   16   -0.21046      1.99912     4.19184    0.01950     6.21046
      H   17    0.22773      0.00000     0.77076    0.00151     0.77227
      H   18    0.21728      0.00000     0.78154    0.00118     0.78272
      H   19    0.22854      0.00000     0.76969    0.00177     0.77146
      C   20   -0.28093      1.99895     4.25255    0.02943     6.28093
      C   21   -0.23779      1.99912     4.21893    0.01974     6.23779
      C   22   -0.18821      1.99921     4.17126    0.01774     6.18821
      C   23   -0.28185      1.99906     4.26451    0.01828     6.28185
      C   24    0.32187      1.99867     3.65603    0.02343     5.67813
      C   25   -0.09584      1.99885     4.06927    0.02772     6.09584
      C   26   -0.09900      1.99886     4.07266    0.02748     6.09900
      C   27    0.32243      1.99866     3.65492    0.02399     5.67757
      C   28   -0.29538      1.99903     4.27876    0.01759     6.29538
      C   29   -0.18568      1.99921     4.16909    0.01738     6.18568
      C   30   -0.24266      1.99911     4.22462    0.01894     6.24266
      C   31   -0.27811      1.99895     4.24984    0.02932     6.27811
      P   32    0.84379      9.99779     4.12771    0.03072    14.15621
      C   33   -0.33644      1.99905     4.30382    0.03357     6.33644
      C   34   -0.20914      1.99910     4.18875    0.02129     6.20914
      C   35   -0.21369      1.99920     4.19539    0.01910     6.21369
      C   36   -0.21002      1.99922     4.19256    0.01824     6.21002
      C   37   -0.21395      1.99921     4.19651    0.01822     6.21395
      C   38   -0.19666      1.99912     4.17700    0.02055     6.19666
      H   39    0.22642      0.00000     0.77212    0.00146     0.77358
      H   40    0.21553      0.00000     0.78329    0.00118     0.78447
      H   41    0.23513      0.00000     0.76269    0.00218     0.76487
      C   42   -0.32565      1.99905     4.29462    0.03197     6.32565
      C   43   -0.21050      1.99912     4.19200    0.01938     6.21050
      C   44   -0.21660      1.99921     4.19889    0.01850     6.21660
      C   45   -0.21255      1.99922     4.19512    0.01821     6.21255
      C   46   -0.21044      1.99921     4.19336    0.01787     6.21044
      C   47   -0.20229      1.99910     4.18414    0.01906     6.20229
      H   48    0.22870      0.00000     0.76951    0.00179     0.77130
      H   49    0.21728      0.00000     0.78155    0.00118     0.78272
      H   50    0.22767      0.00000     0.77086    0.00148     0.77233
      H   51    0.23107      0.00000     0.76674    0.00219     0.76893
      H   52    0.21699      0.00000     0.78179    0.00122     0.78301
      H   53    0.21650      0.00000     0.78084    0.00266     0.78350
      O   54   -0.48588      1.99976     6.46280    0.02332     8.48588
      C   55   -0.08352      1.99925     4.06606    0.01822     6.08352
      H   56    0.19521      0.00000     0.80328    0.00151     0.80479
      H   57    0.17914      0.00000     0.81924    0.00162     0.82086
      C   58   -0.44467      1.99943     4.43059    0.01466     6.44467
      H   59    0.21863      0.00000     0.78023    0.00114     0.78137
      H   60    0.23158      0.00000     0.76687    0.00155     0.76842
      C   61   -0.42206      1.99944     4.40762    0.01500     6.42206
      H   62    0.21594      0.00000     0.78277    0.00129     0.78406
      H   63    0.21048      0.00000     0.78836    0.00116     0.78952
      C   64   -0.08201      1.99925     4.06410    0.01866     6.08201
      H   65    0.17786      0.00000     0.82044    0.00171     0.82214
      O   66   -0.49630      1.99975     6.47198    0.02457     8.49630
      H   67    0.18496      0.00000     0.81282    0.00222     0.81504
      H   68    0.22098      0.00000     0.77741    0.00160     0.77902
      H   69    0.21700      0.00000     0.78179    0.00121     0.78300
      H   70    0.23119      0.00000     0.76698    0.00183     0.76881
      H   71    0.21676      0.00000     0.78192    0.00132     0.78324
      H   72    0.21821      0.00000     0.78054    0.00125     0.78179
      H   73    0.21701      0.00000     0.78178    0.00121     0.78299
      H   74    0.21618      0.00000     0.78251    0.00131     0.78382
      H   75    0.21816      0.00000     0.78059    0.00125     0.78184
      H   76    0.21679      0.00000     0.78189    0.00132     0.78321
      H   77    0.21697      0.00000     0.78167    0.00136     0.78303
      H   78    0.21695      0.00000     0.78186    0.00119     0.78305
 =======================================================================
   * Total *   -0.00000    103.95972   215.03161    1.00867   320.00000

 Normal termination of Gaussian 16 at Mon Nov  1 19:17:51 2021.
