 Gaussian 16, Revision B.01,

 ----------------------------------------------------------------------
 # PBE1PBE/def2TZVP int=(grid=ultrafine) empiricaldispersion=GD3BJ nmr=
 giao
 ----------------------------------------------------------------------

 -----
 title
 -----
 Symbolic Z-matrix:
 Charge =  0 Multiplicity = 1

 SCF Done:  E(RPBE1PBE) =  -2376.32918942     A.U. after   15 cycles

      1  P    Isotropic =   292.9392   Anisotropy =    52.3483

      2  C    Isotropic =    42.4125   Anisotropy =   204.7012

      3  C    Isotropic =    43.6652   Anisotropy =   186.0301

      4  C    Isotropic =    52.5555   Anisotropy =   186.1091

      5  C    Isotropic =    51.4438   Anisotropy =   189.7019

      6  C    Isotropic =    52.4474   Anisotropy =   186.5772

      7  C    Isotropic =    40.6037   Anisotropy =   200.2706

      8  H    Isotropic =    23.5568   Anisotropy =     9.6388

      9  H    Isotropic =    24.0862   Anisotropy =     3.7146

     10  H    Isotropic =    23.5666   Anisotropy =     8.0888

     11  C    Isotropic =    40.4616   Anisotropy =   205.3528

     12  C    Isotropic =    43.7630   Anisotropy =   196.5008

     13  C    Isotropic =    50.7447   Anisotropy =   185.6394

     14  C    Isotropic =    52.0342   Anisotropy =   186.1594

     15  C    Isotropic =    52.7614   Anisotropy =   182.9106

     16  C    Isotropic =    43.3306   Anisotropy =   183.6364

     17  H    Isotropic =    23.1842   Anisotropy =    10.1315

     18  H    Isotropic =    23.8653   Anisotropy =     3.8053

     19  H    Isotropic =    23.8751   Anisotropy =    14.6171

     20  C    Isotropic =    36.4666   Anisotropy =   190.6678

     21  C    Isotropic =    55.6291   Anisotropy =   180.9572

     22  C    Isotropic =    52.6950   Anisotropy =   182.2193

     23  C    Isotropic =    71.6778   Anisotropy =   169.4799

     24  C    Isotropic =    23.5366   Anisotropy =   140.6794

     25  C    Isotropic =    48.1294   Anisotropy =   160.4449

     26  C    Isotropic =    47.9623   Anisotropy =   160.2139

     27  C    Isotropic =    23.4497   Anisotropy =   140.5351

     28  C    Isotropic =    71.5387   Anisotropy =   169.4144

     29  C    Isotropic =    52.6740   Anisotropy =   181.9303

     30  C    Isotropic =    55.6168   Anisotropy =   181.2030

     31  C    Isotropic =    36.1524   Anisotropy =   190.6866

     32  P    Isotropic =   293.4122   Anisotropy =    51.8189

     33  C    Isotropic =    42.3599   Anisotropy =   204.8558

     34  C    Isotropic =    40.4591   Anisotropy =   200.2431

     35  C    Isotropic =    52.4832   Anisotropy =   186.5507

     36  C    Isotropic =    51.3836   Anisotropy =   189.8794

     37  C    Isotropic =    52.5333   Anisotropy =   186.2170

     38  C    Isotropic =    43.5177   Anisotropy =   186.1951

     39  H    Isotropic =    23.5677   Anisotropy =     7.9628

     40  H    Isotropic =    24.0860   Anisotropy =     3.6762

     41  H    Isotropic =    23.5821   Anisotropy =     9.6661

     42  C    Isotropic =    40.5291   Anisotropy =   205.1721

     43  C    Isotropic =    43.3914   Anisotropy =   183.7848

     44  C    Isotropic =    52.7497   Anisotropy =   182.9624

     45  C    Isotropic =    52.0710   Anisotropy =   186.1424

     46  C    Isotropic =    50.7441   Anisotropy =   185.5467

     47  C    Isotropic =    43.9780   Anisotropy =   196.3848

     48  H    Isotropic =    23.8582   Anisotropy =    14.5967

     49  H    Isotropic =    23.8627   Anisotropy =     3.8135

     50  H    Isotropic =    23.1934   Anisotropy =    10.1646

     51  H    Isotropic =    25.2729   Anisotropy =    12.4899

     52  H    Isotropic =    24.6274   Anisotropy =     4.8372

     53  H    Isotropic =    25.0660   Anisotropy =     6.3648

     54  O    Isotropic =   209.3211   Anisotropy =   122.6118

     55  C    Isotropic =   115.0030   Anisotropy =    54.3827

     56  H    Isotropic =    27.7980   Anisotropy =     8.8355

     57  H    Isotropic =    26.9184   Anisotropy =     7.3980

     58  C    Isotropic =   157.0784   Anisotropy =    26.0353

     59  H    Isotropic =    29.9900   Anisotropy =    11.6450

     60  H    Isotropic =    29.5599   Anisotropy =     2.3479

     61  C    Isotropic =   157.0782   Anisotropy =    26.0026

     62  H    Isotropic =    29.9937   Anisotropy =    11.6450

     63  H    Isotropic =    29.5646   Anisotropy =     2.3889

     64  C    Isotropic =   115.0855   Anisotropy =    54.3081

     65  H    Isotropic =    27.8130   Anisotropy =     8.7962

     66  O    Isotropic =   209.0359   Anisotropy =   122.8722

     67  H    Isotropic =    26.9413   Anisotropy =     7.3410

     68  H    Isotropic =    25.0950   Anisotropy =     6.3388

     69  H    Isotropic =    24.6350   Anisotropy =     4.8289

     70  H    Isotropic =    25.2803   Anisotropy =    12.5387

     71  H    Isotropic =    23.9414   Anisotropy =     7.1109

     72  H    Isotropic =    23.6950   Anisotropy =     5.7843

     73  H    Isotropic =    24.1118   Anisotropy =     5.0236

     74  H    Isotropic =    24.0466   Anisotropy =     6.6525

     75  H    Isotropic =    23.6956   Anisotropy =     5.8100

     76  H    Isotropic =    23.9345   Anisotropy =     7.0975

     77  H    Isotropic =    24.0463   Anisotropy =     6.5504

     78  H    Isotropic =    24.1225   Anisotropy =     5.0458

 Normal termination of Gaussian 16 at Mon Nov  1 18:59:57 2021.
 Gaussian 16:  ES64L-G16RevB.01 20-Dec-2017

 ----------------------------------------------------------------------
 # PBE1PBE/def2TZVP int=(grid=ultrafine) empiricaldispersion=GD3BJ pop=
 nbo guess=read geom=check
 ----------------------------------------------------------------------

 -----
 title
 -----
 Structure from the checkpoint file:  "R-C4-Tunephos_1_SPE_NoPd.chk"
 Charge =  0 Multiplicity = 1

                         Standard orientation:
 ---------------------------------------------------------------------
 Center     Atomic      Atomic             Coordinates (Angstroms)
 Number     Number       Type             X           Y           Z
 ---------------------------------------------------------------------
      1         15           0        1.690215   -1.456799    0.058210
      2          6           0        2.088390   -0.827641    1.727695
      3          6           0        1.811719   -1.661653    2.828376
      4          6           0        2.119511   -1.224047    4.122651
      5          6           0        2.698901    0.038102    4.322624
      6          6           0        2.978474    0.865464    3.225161
      7          6           0        2.677631    0.435471    1.926614
      8          1           0        2.862058    1.095432    1.073779
      9          1           0        2.931389    0.378708    5.337106
     10          1           0        1.371556   -2.649850    2.652259
     11          6           0        3.273203   -2.074621   -0.639369
     12          6           0        4.509553   -1.577282   -0.191655
     13          6           0        5.697145   -2.003953   -0.802579
     14          6           0        5.654933   -2.918118   -1.863728
     15          6           0        4.421519   -3.416680   -2.310115
     16          6           0        3.233032   -3.005622   -1.696243
     17          1           0        2.271793   -3.421298   -2.014027
     18          1           0        6.584324   -3.251790   -2.336729
     19          1           0        4.548242   -0.869211    0.641529
     20          6           0        1.346570    0.028326   -0.994500
     21          6           0        2.026054    0.165330   -2.222321
     22          6           0        1.736926    1.237670   -3.071118
     23          6           0        0.771949    2.188313   -2.722147
     24          6           0        0.085894    2.054436   -1.506932
     25          6           0        0.362057    0.975156   -0.628903
     26          6           0       -0.374563    0.946572    0.667478
     27          6           0       -0.115772    1.997629    1.584052
     28          6           0       -0.805880    2.077747    2.801711
     29          6           0       -1.756681    1.100593    3.114835
     30          6           0       -2.028617    0.055244    2.227526
     31          6           0       -1.345980   -0.026640    0.996656
     32         15           0       -1.672290   -1.470262   -0.117300
     33          6           0       -2.077746   -0.769737   -1.756313
     34          6           0       -2.702799    0.484359   -1.895093
     35          6           0       -3.005175    0.972868   -3.172348
     36          6           0       -2.690135    0.213475   -4.308698
     37          6           0       -2.074147   -1.039380   -4.169098
     38          6           0       -1.765841   -1.535538   -2.896272
     39          1           0       -1.296454   -2.517442   -2.767617
     40          1           0       -2.923532    0.600099   -5.306334
     41          1           0       -2.913596    1.093083   -1.010765
     42          6           0       -3.245366   -2.137981    0.555802
     43          6           0       -3.187500   -3.105665    1.578402
     44          6           0       -4.367657   -3.560138    2.177336
     45          6           0       -5.610301   -3.068458    1.749111
     46          6           0       -5.669913   -2.118002    0.721256
     47          6           0       -4.490735   -1.647799    0.126030
     48          1           0       -4.543010   -0.911787   -0.681782
     49          1           0       -6.533122   -3.435876    2.209796
     50          1           0       -2.218385   -3.514921    1.880430
     51          1           0       -2.778542   -0.694470    2.487377
     52          1           0       -2.292239    1.154877    4.068050
     53          1           0       -0.595189    2.880464    3.512728
     54          8           0        0.891027    2.858776    1.214684
     55          6           0        0.839749    4.225175    1.649697
     56          1           0        1.861538    4.600395    1.469192
     57          1           0        0.649088    4.295663    2.736508
     58          6           0       -0.180228    5.043238    0.854470
     59          1           0       -0.173352    6.068375    1.268000
     60          1           0       -1.188798    4.633647    1.050399
     61          6           0        0.100318    5.073486   -0.669404
     62          1           0        0.075590    6.112697   -1.045408
     63          1           0        1.115582    4.688524   -0.880150
     64          6           0       -0.905980    4.266904   -1.493139
     65          1           0       -1.933945    4.618049   -1.299633
     66          8           0       -0.933152    2.885789   -1.105351
     67          1           0       -0.717313    4.378408   -2.576814
     68          1           0        0.547359    3.012160   -3.404140
     69          1           0        2.269796    1.334009   -4.022514
     70          1           0        2.786175   -0.563476   -2.510465
     71          1           0        6.658168   -1.623134   -0.441412
     72          1           0        4.383744   -4.145515   -3.125909
     73          1           0        1.903144   -1.871723    4.978320
     74          1           0        3.423388    1.854424    3.378476
     75          1           0       -4.316014   -4.317055    2.966355
     76          1           0       -6.638017   -1.742509    0.373689
     77          1           0       -3.478751    1.954679   -3.278421
     78          1           0       -1.829614   -1.633871   -5.055234
 ---------------------------------------------------------------------

 SCF Done:  E(RPBE1PBE) =  -2376.32918942     A.U. after    1 cycles

 The electronic state is 1-A.
 Alpha  occ. eigenvalues --  -77.18981 -77.18974 -19.23007 -19.23002 -10.28226
 Alpha  occ. eigenvalues --  -10.28225 -10.28182 -10.28178 -10.23603 -10.23595
 Alpha  occ. eigenvalues --  -10.23346 -10.23344 -10.23331 -10.23300 -10.23287
 Alpha  occ. eigenvalues --  -10.23266 -10.23165 -10.23162 -10.23003 -10.22998
 Alpha  occ. eigenvalues --  -10.22967 -10.22962 -10.22895 -10.22892 -10.22825
 Alpha  occ. eigenvalues --  -10.22808 -10.22783 -10.22782 -10.22757 -10.22751
 Alpha  occ. eigenvalues --  -10.22625 -10.22624 -10.22611 -10.22605 -10.22555
 Alpha  occ. eigenvalues --  -10.22542 -10.22451 -10.22428 -10.22424 -10.22421
 Alpha  occ. eigenvalues --  -10.22135 -10.22133 -10.21490 -10.21489  -6.58604
 Alpha  occ. eigenvalues --   -6.58599  -4.72193  -4.72187  -4.72187  -4.72182
 Alpha  occ. eigenvalues --   -4.71741  -4.71736  -1.08814  -1.08026  -0.88589
 Alpha  occ. eigenvalues --   -0.87696  -0.87461  -0.87081  -0.87036  -0.86108
 Alpha  occ. eigenvalues --   -0.82691  -0.79599  -0.78633  -0.78125  -0.77207
 Alpha  occ. eigenvalues --   -0.76477  -0.76471  -0.76181  -0.76164  -0.75785
 Alpha  occ. eigenvalues --   -0.75744  -0.75328  -0.74896  -0.72016  -0.68009
 Alpha  occ. eigenvalues --   -0.66490  -0.65709  -0.63370  -0.63253  -0.62019
 Alpha  occ. eigenvalues --   -0.62004  -0.61588  -0.61511  -0.60958  -0.60898
 Alpha  occ. eigenvalues --   -0.59961  -0.59668  -0.58062  -0.56711  -0.55843
 Alpha  occ. eigenvalues --   -0.54250  -0.52651  -0.52568  -0.52328  -0.50850
 Alpha  occ. eigenvalues --   -0.50649  -0.50391  -0.49851  -0.49775  -0.48833
 Alpha  occ. eigenvalues --   -0.47142  -0.46744  -0.46379  -0.46336  -0.46049
 Alpha  occ. eigenvalues --   -0.45958  -0.45948  -0.45852  -0.45432  -0.45183
 Alpha  occ. eigenvalues --   -0.44495  -0.44385  -0.43247  -0.43050  -0.43016
 Alpha  occ. eigenvalues --   -0.42743  -0.42719  -0.41960  -0.41598  -0.41309
 Alpha  occ. eigenvalues --   -0.41082  -0.40801  -0.39221  -0.39117  -0.38806
 Alpha  occ. eigenvalues --   -0.38474  -0.38255  -0.37594  -0.37458  -0.37059
 Alpha  occ. eigenvalues --   -0.36924  -0.36690  -0.36286  -0.35500  -0.35264
 Alpha  occ. eigenvalues --   -0.35246  -0.35095  -0.35030  -0.34216  -0.34024
 Alpha  occ. eigenvalues --   -0.33624  -0.33433  -0.32614  -0.32435  -0.31419
 Alpha  occ. eigenvalues --   -0.30850  -0.28580  -0.27884  -0.26634  -0.26578
 Alpha  occ. eigenvalues --   -0.26395  -0.26386  -0.25982  -0.25954  -0.25570
 Alpha  occ. eigenvalues --   -0.25258  -0.23572  -0.21961  -0.21814  -0.18610
 Alpha virt. eigenvalues --   -0.02831  -0.02567  -0.02361  -0.01799  -0.01392
 Alpha virt. eigenvalues --   -0.01002  -0.00652  -0.00497   0.00103   0.00432
 Alpha virt. eigenvalues --    0.01068   0.01719   0.03999   0.04646   0.05228

 Mulliken charges:
               1
     1  P    0.036462
     2  C    0.154440
     3  C   -0.206396
     4  C   -0.110866
     5  C   -0.114008
     6  C   -0.134256
     7  C   -0.154730
     8  H    0.153682
     9  H    0.113098
    10  H    0.123706
    11  C    0.062959
    12  C   -0.121448
    13  C   -0.150277
    14  C   -0.103056
    15  C   -0.108940
    16  C   -0.210702
    17  H    0.124710
    18  H    0.117222
    19  H    0.139982
    20  C   -0.014577
    21  C   -0.186813
    22  C   -0.173658
    23  C   -0.250409
    24  C    0.249421
    25  C    0.069658
    26  C    0.072015
    27  C    0.247333
    28  C   -0.247860
    29  C   -0.174663
    30  C   -0.184109
    31  C   -0.023550
    32  P    0.037590
    33  C    0.157776
    34  C   -0.159156
    35  C   -0.129574
    36  C   -0.116874
    37  C   -0.108781
    38  C   -0.207883
    39  H    0.124078
    40  H    0.112955
    41  H    0.153150
    42  C    0.063243
    43  C   -0.211334
    44  C   -0.108197
    45  C   -0.103645
    46  C   -0.150254
    47  C   -0.122125
    48  H    0.140593
    49  H    0.117191
    50  H    0.124565
    51  H    0.138936
    52  H    0.108373
    53  H    0.094177
    54  O   -0.258099
    55  C   -0.156015
    56  H    0.126437
    57  H    0.114014
    58  C   -0.166739
    59  H    0.113864
    60  H    0.128737
    61  C   -0.165991
    62  H    0.113873
    63  H    0.128611
    64  C   -0.156738
    65  H    0.126246
    66  O   -0.257775
    67  H    0.114088
    68  H    0.094031
    69  H    0.108282
    70  H    0.138988
    71  H    0.115306
    72  H    0.116982
    73  H    0.113325
    74  H    0.107001
    75  H    0.117027
    76  H    0.115276
    77  H    0.106860
    78  H    0.113236
 Sum of Mulliken charges =  -0.00000

 Dipole moment (field-independent basis, Debye):
    X=             -0.0349    Y=              4.1625    Z=              0.0656  Tot=              4.1632
 Quadrupole moment (field-independent basis, Debye-Ang):
   XX=           -260.1721   YY=           -244.5088   ZZ=           -247.8126
   XY=             -0.1881   XZ=             -3.4249   YZ=             -0.0511

 Summary of Natural Population Analysis:

                                       Natural Population
                Natural  -----------------------------------------------
    Atom  No    Charge         Core      Valence    Rydberg      Total
 -----------------------------------------------------------------------
      P    1    0.84324      9.99780     4.12823    0.03073    14.15676
      C    2   -0.33741      1.99905     4.30479    0.03357     6.33741
      C    3   -0.19534      1.99912     4.17555    0.02067     6.19534
      C    4   -0.21435      1.99921     4.19695    0.01819     6.21435
      C    5   -0.20954      1.99922     4.19225    0.01807     6.20954
      C    6   -0.21525      1.99920     4.19785    0.01820     6.21525
      C    7   -0.20564      1.99909     4.18477    0.02177     6.20564
      H    8    0.23613      0.00000     0.76149    0.00238     0.76387
      H    9    0.21542      0.00000     0.78338    0.00120     0.78458
      H   10    0.22663      0.00000     0.77191    0.00146     0.77337
      C   11   -0.32672      1.99905     4.29555    0.03212     6.32672
      C   12   -0.20410      1.99910     4.18583    0.01916     6.20410
      C   13   -0.21071      1.99921     4.19359    0.01791     6.21071
      C   14   -0.21354      1.99922     4.19608    0.01825     6.21354
      C   15   -0.21665      1.99921     4.19888    0.01856     6.21665
      C   16   -0.20955      1.99912     4.19089    0.01954     6.20955
      H   17    0.22729      0.00000     0.77119    0.00152     0.77271
      H   18    0.21716      0.00000     0.78167    0.00118     0.78284
      H   19    0.22840      0.00000     0.76968    0.00192     0.77160
      C   20   -0.27895      1.99893     4.25044    0.02957     6.27895
      C   21   -0.24395      1.99911     4.22512    0.01972     6.24395
      C   22   -0.18496      1.99921     4.16819    0.01755     6.18496
      C   23   -0.29867      1.99904     4.28199    0.01763     6.29867
      C   24    0.32420      1.99866     3.65349    0.02366     5.67580
      C   25   -0.09364      1.99887     4.06687    0.02791     6.09364
      C   26   -0.09361      1.99886     4.06685    0.02790     6.09361
      C   27    0.32402      1.99866     3.65373    0.02359     5.67598
      C   28   -0.29865      1.99904     4.28200    0.01761     6.29865
      C   29   -0.18496      1.99921     4.16820    0.01755     6.18496
      C   30   -0.24389      1.99911     4.22506    0.01972     6.24389
      C   31   -0.27851      1.99893     4.24999    0.02958     6.27851
      P   32    0.84309      9.99780     4.12840    0.03071    14.15691
      C   33   -0.33764      1.99905     4.30498    0.03361     6.33764
      C   34   -0.20496      1.99910     4.18409    0.02177     6.20496
      C   35   -0.21555      1.99920     4.19813    0.01822     6.21555
      C   36   -0.20929      1.99922     4.19201    0.01807     6.20929
      C   37   -0.21435      1.99921     4.19695    0.01819     6.21435
      C   38   -0.19474      1.99912     4.17493    0.02069     6.19474
      H   39    0.22682      0.00000     0.77171    0.00147     0.77318
      H   40    0.21541      0.00000     0.78338    0.00120     0.78459
      H   41    0.23556      0.00000     0.76205    0.00238     0.76444
      C   42   -0.32669      1.99905     4.29555    0.03209     6.32669
      C   43   -0.20968      1.99912     4.19102    0.01953     6.20968
      C   44   -0.21652      1.99921     4.19875    0.01856     6.21652
      C   45   -0.21371      1.99922     4.19624    0.01825     6.21371
      C   46   -0.21062      1.99921     4.19350    0.01790     6.21062
      C   47   -0.20446      1.99910     4.18621    0.01915     6.20446
      H   48    0.22835      0.00000     0.76973    0.00191     0.77165
      H   49    0.21715      0.00000     0.78167    0.00118     0.78285
      H   50    0.22740      0.00000     0.77107    0.00152     0.77260
      H   51    0.23127      0.00000     0.76690    0.00183     0.76873
      H   52    0.21612      0.00000     0.78270    0.00118     0.78388
      H   53    0.21654      0.00000     0.78186    0.00160     0.78346
      O   54   -0.48390      1.99975     6.46027    0.02388     8.48390
      C   55   -0.07107      1.99926     4.05362    0.01819     6.07107
      H   56    0.19182      0.00000     0.80676    0.00143     0.80818
      H   57    0.17769      0.00000     0.82052    0.00180     0.82231
      C   58   -0.44169      1.99943     4.42813    0.01413     6.44169
      H   59    0.21737      0.00000     0.78142    0.00121     0.78263
      H   60    0.21906      0.00000     0.77892    0.00202     0.78094
      C   61   -0.44163      1.99943     4.42808    0.01412     6.44163
      H   62    0.21734      0.00000     0.78145    0.00121     0.78266
      H   63    0.21902      0.00000     0.77896    0.00201     0.78098
      C   64   -0.07109      1.99926     4.05364    0.01819     6.07109
      H   65    0.19174      0.00000     0.80683    0.00143     0.80826
      O   66   -0.48343      1.99975     6.45975    0.02393     8.48343
      H   67    0.17780      0.00000     0.82040    0.00180     0.82220
      H   68    0.21657      0.00000     0.78183    0.00161     0.78343
      H   69    0.21610      0.00000     0.78272    0.00119     0.78390
      H   70    0.23128      0.00000     0.76689    0.00183     0.76872
      H   71    0.21660      0.00000     0.78208    0.00132     0.78340
      H   72    0.21808      0.00000     0.78067    0.00125     0.78192
      H   73    0.21708      0.00000     0.78173    0.00119     0.78292
      H   74    0.21503      0.00000     0.78365    0.00132     0.78497
      H   75    0.21811      0.00000     0.78064    0.00125     0.78189
      H   76    0.21657      0.00000     0.78211    0.00132     0.78343
      H   77    0.21500      0.00000     0.78368    0.00132     0.78500
      H   78    0.21714      0.00000     0.78167    0.00119     0.78286
 =======================================================================
   * Total *    0.00000    103.95975   215.03072    1.00953   320.00000

 Normal termination of Gaussian 16 at Mon Nov  1 19:02:59 2021.
