 Gaussian 16, Revision B.01,

 ----------------------------------------------------------------------
 # PBE1PBE/def2TZVP int=(grid=ultrafine) empiricaldispersion=GD3BJ nmr=
 giao
 ----------------------------------------------------------------------

 -----
 title
 -----
 Symbolic Z-matrix:
 Charge =  0 Multiplicity = 1

 SCF Done:  E(RPBE1PBE) =  -2376.32783259     A.U. after   15 cycles

      1  P    Isotropic =   291.1103   Anisotropy =    57.4081

      2  C    Isotropic =    41.8975   Anisotropy =   206.5083

      3  C    Isotropic =    43.4686   Anisotropy =   186.5486

      4  C    Isotropic =    52.4063   Anisotropy =   186.4069

      5  C    Isotropic =    51.5458   Anisotropy =   189.4279

      6  C    Isotropic =    52.7390   Anisotropy =   186.3794

      7  C    Isotropic =    41.3817   Anisotropy =   201.1738

      8  H    Isotropic =    23.5838   Anisotropy =     9.7485

      9  H    Isotropic =    24.0962   Anisotropy =     3.7809

     10  H    Isotropic =    23.6351   Anisotropy =     8.0973

     11  C    Isotropic =    39.9908   Anisotropy =   205.4977

     12  C    Isotropic =    43.5269   Anisotropy =   196.2238

     13  C    Isotropic =    50.7646   Anisotropy =   185.4840

     14  C    Isotropic =    52.0305   Anisotropy =   186.3062

     15  C    Isotropic =    52.8519   Anisotropy =   182.7714

     16  C    Isotropic =    42.9886   Anisotropy =   183.7262

     17  H    Isotropic =    23.1496   Anisotropy =    10.0941

     18  H    Isotropic =    23.8881   Anisotropy =     3.8013

     19  H    Isotropic =    23.9532   Anisotropy =    14.7163

     20  C    Isotropic =    37.0560   Anisotropy =   189.7265

     21  C    Isotropic =    56.1576   Anisotropy =   180.5212

     22  C    Isotropic =    51.9848   Anisotropy =   183.2455

     23  C    Isotropic =    68.7474   Anisotropy =   159.0315

     24  C    Isotropic =    18.6593   Anisotropy =   143.8226

     25  C    Isotropic =    50.6553   Anisotropy =   158.5712

     26  C    Isotropic =    50.6558   Anisotropy =   158.5714

     27  C    Isotropic =    18.6594   Anisotropy =   143.8233

     28  C    Isotropic =    68.7482   Anisotropy =   159.0315

     29  C    Isotropic =    51.9849   Anisotropy =   183.2468

     30  C    Isotropic =    56.1581   Anisotropy =   180.5199

     31  C    Isotropic =    37.0577   Anisotropy =   189.7261

     32  P    Isotropic =   291.1095   Anisotropy =    57.4079

     33  C    Isotropic =    41.8982   Anisotropy =   206.5073

     34  C    Isotropic =    41.3821   Anisotropy =   201.1738

     35  C    Isotropic =    52.7388   Anisotropy =   186.3799

     36  C    Isotropic =    51.5462   Anisotropy =   189.4273

     37  C    Isotropic =    52.4066   Anisotropy =   186.4066

     38  C    Isotropic =    43.4692   Anisotropy =   186.5478

     39  H    Isotropic =    23.6351   Anisotropy =     8.0978

     40  H    Isotropic =    24.0963   Anisotropy =     3.7811

     41  H    Isotropic =    23.5838   Anisotropy =     9.7485

     42  C    Isotropic =    39.9906   Anisotropy =   205.4983

     43  C    Isotropic =    42.9889   Anisotropy =   183.7258

     44  C    Isotropic =    52.8520   Anisotropy =   182.7712

     45  C    Isotropic =    52.0304   Anisotropy =   186.3061

     46  C    Isotropic =    50.7646   Anisotropy =   185.4844

     47  C    Isotropic =    43.5258   Anisotropy =   196.2245

     48  H    Isotropic =    23.9532   Anisotropy =    14.7166

     49  H    Isotropic =    23.8881   Anisotropy =     3.8013

     50  H    Isotropic =    23.1496   Anisotropy =    10.0940

     51  H    Isotropic =    25.2265   Anisotropy =    12.5298

     52  H    Isotropic =    24.6664   Anisotropy =     4.8211

     53  H    Isotropic =    25.2903   Anisotropy =     5.9922

     54  O    Isotropic =   201.9208   Anisotropy =    97.7985

     55  C    Isotropic =   107.8563   Anisotropy =    62.2215

     56  H    Isotropic =    27.0293   Anisotropy =     8.1116

     57  H    Isotropic =    27.4886   Anisotropy =     6.1636

     58  C    Isotropic =   151.0970   Anisotropy =    14.4842

     59  H    Isotropic =    29.7323   Anisotropy =     5.0669

     60  H    Isotropic =    29.7425   Anisotropy =    11.1135

     61  C    Isotropic =   151.0967   Anisotropy =    14.4847

     62  H    Isotropic =    29.7323   Anisotropy =     5.0672

     63  H    Isotropic =    29.7425   Anisotropy =    11.1136

     64  C    Isotropic =   107.8558   Anisotropy =    62.2225

     65  H    Isotropic =    27.0292   Anisotropy =     8.1118

     66  O    Isotropic =   201.9227   Anisotropy =    97.7984

     67  H    Isotropic =    27.4885   Anisotropy =     6.1636

     68  H    Isotropic =    25.2902   Anisotropy =     5.9923

     69  H    Isotropic =    24.6664   Anisotropy =     4.8210

     70  H    Isotropic =    25.2265   Anisotropy =    12.5295

     71  H    Isotropic =    23.9928   Anisotropy =     7.1955

     72  H    Isotropic =    23.7044   Anisotropy =     5.7631

     73  H    Isotropic =    24.1259   Anisotropy =     4.9942

     74  H    Isotropic =    24.0493   Anisotropy =     6.6440

     75  H    Isotropic =    23.7044   Anisotropy =     5.7630

     76  H    Isotropic =    23.9928   Anisotropy =     7.1956

     77  H    Isotropic =    24.0493   Anisotropy =     6.6444

     78  H    Isotropic =    24.1259   Anisotropy =     4.9941

 Normal termination of Gaussian 16 at Mon Nov  1 20:07:45 2021.
 Gaussian 16:  ES64L-G16RevB.01 20-Dec-2017

 ----------------------------------------------------------------------
 # PBE1PBE/def2TZVP int=(grid=ultrafine) empiricaldispersion=GD3BJ pop=
 nbo guess=read geom=check
 ----------------------------------------------------------------------

 -----
 title
 -----
 Structure from the checkpoint file:  "R-C4-Tunephos_3_SPE_NoPd.chk"
 Charge =  0 Multiplicity = 1

                         Standard orientation:
 ---------------------------------------------------------------------
 Center     Atomic      Atomic             Coordinates (Angstroms)
 Number     Number       Type             X           Y           Z
 ---------------------------------------------------------------------
      1         15           0        1.661385   -1.493858    0.077076
      2          6           0        2.089832   -0.796143    1.712003
      3          6           0        1.865270   -1.598104    2.847360
      4          6           0        2.206313   -1.112247    4.116227
      5          6           0        2.767949    0.165569    4.256366
      6          6           0        2.994744    0.962009    3.124082
      7          6           0        2.658508    0.484845    1.851159
      8          1           0        2.801165    1.121291    0.972108
      9          1           0        3.027729    0.542914    5.251029
     10          1           0        1.439229   -2.599775    2.718434
     11          6           0        3.240937   -2.122909   -0.620598
     12          6           0        4.475949   -1.573947   -0.232610
     13          6           0        5.659184   -2.015353   -0.841024
     14          6           0        5.614230   -2.996482   -1.840656
     15          6           0        4.382730   -3.546404   -2.227360
     16          6           0        3.198481   -3.120130   -1.615113
     17          1           0        2.239720   -3.573280   -1.885448
     18          1           0        6.540511   -3.341534   -2.311616
     19          1           0        4.517420   -0.813655    0.553060
     20          6           0        1.280350   -0.056525   -1.028116
     21          6           0        1.885190   -0.024164   -2.300894
     22          6           0        1.574780    0.996217   -3.203727
     23          6           0        0.693253    2.018454   -2.842730
     24          6           0        0.109264    2.010407   -1.565865
     25          6           0        0.355582    0.950771   -0.655730
     26          6           0       -0.355520    0.950901    0.655577
     27          6           0       -0.109102    2.010657    1.565546
     28          6           0       -0.693086    2.018958    2.842412
     29          6           0       -1.574710    0.996861    3.203568
     30          6           0       -1.885216   -0.023633    2.300895
     31          6           0       -1.280378   -0.056252    1.028122
     32         15           0       -1.661497   -1.493765   -0.076805
     33          6           0       -2.089887   -0.796355   -1.711878
     34          6           0       -2.658391    0.484677   -1.851309
     35          6           0       -2.994595    0.961599   -3.124332
     36          6           0       -2.767945    0.164869   -4.256440
     37          6           0       -2.206485   -1.112996   -4.116023
     38          6           0       -1.865470   -1.598609   -2.847057
     39          1           0       -1.439568   -2.600311   -2.717913
     40          1           0       -3.027699    0.542023   -5.251182
     41          1           0       -2.800949    1.121340   -0.972398
     42          6           0       -3.241110   -2.122568    0.620959
     43          6           0       -3.198770   -3.119599    1.615668
     44          6           0       -4.383075   -3.545649    2.227963
     45          6           0       -5.614515   -2.995691    1.841119
     46          6           0       -5.659353   -2.014747    0.841300
     47          6           0       -4.476061   -1.573565    0.232834
     48          1           0       -4.517439   -0.813413   -0.552976
     49          1           0       -6.540841   -3.340567    2.312120
     50          1           0       -2.240058   -3.572778    1.886122
     51          1           0       -2.597898   -0.799907    2.586292
     52          1           0       -2.025693    0.996545    4.200932
     53          1           0       -0.434982    2.802055    3.560122
     54          8           0        0.762317    2.978669    1.141633
     55          6           0        0.577479    4.318941    1.626400
     56          1           0        1.382085    4.542894    2.352912
     57          1           0       -0.392216    4.403839    2.150177
     58          6           0        0.618300    5.309731    0.463163
     59          1           0        1.539538    5.139593   -0.125363
     60          1           0        0.721487    6.314079    0.915363
     61          6           0       -0.617778    5.309731   -0.463986
     62          1           0       -1.539036    5.139797    0.124566
     63          1           0       -0.720845    6.314019   -0.916346
     64          6           0       -0.577076    4.318755   -1.627071
     65          1           0       -1.381663    4.542690   -2.353610
     66          8           0       -0.762063    2.978573   -1.142106
     67          1           0        0.392624    4.403466   -2.150868
     68          1           0        0.435227    2.801465   -3.560562
     69          1           0        2.025765    0.995704   -4.201090
     70          1           0        2.597805   -0.800546   -2.586166
     71          1           0        6.619222   -1.593211   -0.526148
     72          1           0        4.343109   -4.326305   -2.994374
     73          1           0        2.030176   -1.735424    4.998892
     74          1           0        3.425378    1.963429    3.230373
     75          1           0       -4.343547   -4.325405    2.995129
     76          1           0       -6.619344   -1.592574    0.526321
     77          1           0       -3.425091    1.963056   -3.230838
     78          1           0       -2.030466   -1.736401   -4.998551
 ---------------------------------------------------------------------

 SCF Done:  E(RPBE1PBE) =  -2376.32783259     A.U. after    1 cycles

 The electronic state is 1-A.
 Alpha  occ. eigenvalues --  -77.18977 -77.18976 -19.22907 -19.22906 -10.28246
 Alpha  occ. eigenvalues --  -10.28246 -10.28138 -10.28138 -10.23643 -10.23643
 Alpha  occ. eigenvalues --  -10.23516 -10.23494 -10.23435 -10.23405 -10.23350
 Alpha  occ. eigenvalues --  -10.23350 -10.23177 -10.23177 -10.23001 -10.23001
 Alpha  occ. eigenvalues --  -10.22965 -10.22965 -10.22890 -10.22890 -10.22798
 Alpha  occ. eigenvalues --  -10.22798 -10.22770 -10.22770 -10.22751 -10.22751
 Alpha  occ. eigenvalues --  -10.22617 -10.22617 -10.22609 -10.22609 -10.22557
 Alpha  occ. eigenvalues --  -10.22557 -10.22464 -10.22464 -10.22364 -10.22364
 Alpha  occ. eigenvalues --  -10.22036 -10.22036 -10.21425 -10.21425  -6.58600
 Alpha  occ. eigenvalues --   -6.58600  -4.72188  -4.72188  -4.72184  -4.72184
 Alpha  occ. eigenvalues --   -4.71736  -4.71736  -1.08924  -1.07989  -0.88593
 Alpha  occ. eigenvalues --   -0.87683  -0.87441  -0.87078  -0.87019  -0.86066
 Alpha  occ. eigenvalues --   -0.82971  -0.79641  -0.78627  -0.78098  -0.77332
 Alpha  occ. eigenvalues --   -0.76470  -0.76465  -0.76176  -0.76175  -0.75775
 Alpha  occ. eigenvalues --   -0.75733  -0.75168  -0.74818  -0.71887  -0.68083
 Alpha  occ. eigenvalues --   -0.66404  -0.65718  -0.63293  -0.62513  -0.62004
 Alpha  occ. eigenvalues --   -0.61989  -0.61513  -0.61432  -0.60966  -0.60919
 Alpha  occ. eigenvalues --   -0.60086  -0.59398  -0.58865  -0.56847  -0.56156
 Alpha  occ. eigenvalues --   -0.54197  -0.53326  -0.52590  -0.52562  -0.50860
 Alpha  occ. eigenvalues --   -0.50645  -0.50238  -0.49777  -0.49335  -0.48325
 Alpha  occ. eigenvalues --   -0.48113  -0.47032  -0.46370  -0.46262  -0.46009
 Alpha  occ. eigenvalues --   -0.45956  -0.45951  -0.45868  -0.45417  -0.45226
 Alpha  occ. eigenvalues --   -0.44325  -0.43480  -0.43261  -0.43044  -0.43010
 Alpha  occ. eigenvalues --   -0.42732  -0.42730  -0.41938  -0.41598  -0.41394
 Alpha  occ. eigenvalues --   -0.41050  -0.40797  -0.39475  -0.39158  -0.38640
 Alpha  occ. eigenvalues --   -0.38516  -0.38229  -0.37530  -0.37323  -0.37283
 Alpha  occ. eigenvalues --   -0.37007  -0.36412  -0.36014  -0.35681  -0.35256
 Alpha  occ. eigenvalues --   -0.35237  -0.35067  -0.35040  -0.34573  -0.34309
 Alpha  occ. eigenvalues --   -0.33802  -0.33186  -0.32637  -0.32366  -0.31177
 Alpha  occ. eigenvalues --   -0.30977  -0.28699  -0.27963  -0.26620  -0.26607
 Alpha  occ. eigenvalues --   -0.26378  -0.26374  -0.26071  -0.26007  -0.25621
 Alpha  occ. eigenvalues --   -0.25153  -0.23247  -0.22018  -0.21708  -0.18512
 Alpha virt. eigenvalues --   -0.03006  -0.02665  -0.02397  -0.01615  -0.01411
 Alpha virt. eigenvalues --   -0.00970  -0.00710  -0.00540   0.00119   0.00515
 Alpha virt. eigenvalues --    0.01404   0.01823   0.03584   0.04688   0.05363

 Mulliken charges:
               1
     1  P    0.030316
     2  C    0.160256
     3  C   -0.208883
     4  C   -0.110549
     5  C   -0.115127
     6  C   -0.137704
     7  C   -0.152309
     8  H    0.153016
     9  H    0.112930
    10  H    0.122658
    11  C    0.061070
    12  C   -0.118833
    13  C   -0.151914
    14  C   -0.101754
    15  C   -0.109952
    16  C   -0.210394
    17  H    0.125863
    18  H    0.117360
    19  H    0.139407
    20  C   -0.003953
    21  C   -0.193076
    22  C   -0.174037
    23  C   -0.251535
    24  C    0.261535
    25  C    0.037335
    26  C    0.037316
    27  C    0.261547
    28  C   -0.251541
    29  C   -0.174033
    30  C   -0.193087
    31  C   -0.003918
    32  P    0.030315
    33  C    0.160234
    34  C   -0.152282
    35  C   -0.137723
    36  C   -0.115113
    37  C   -0.110561
    38  C   -0.208874
    39  H    0.122657
    40  H    0.112931
    41  H    0.153015
    42  C    0.061075
    43  C   -0.210400
    44  C   -0.109951
    45  C   -0.101753
    46  C   -0.151917
    47  C   -0.118831
    48  H    0.139407
    49  H    0.117360
    50  H    0.125863
    51  H    0.137401
    52  H    0.108297
    53  H    0.129228
    54  O   -0.265083
    55  C   -0.137287
    56  H    0.114507
    57  H    0.110290
    58  C   -0.148323
    59  H    0.103061
    60  H    0.112938
    61  C   -0.148326
    62  H    0.103061
    63  H    0.112938
    64  C   -0.137284
    65  H    0.114508
    66  O   -0.265084
    67  H    0.110290
    68  H    0.129229
    69  H    0.108297
    70  H    0.137401
    71  H    0.115328
    72  H    0.117048
    73  H    0.113295
    74  H    0.107568
    75  H    0.117048
    76  H    0.115328
    77  H    0.107569
    78  H    0.113295
 Sum of Mulliken charges =  -0.00000

 Dipole moment (field-independent basis, Debye):
    X=              0.0002    Y=              4.0758    Z=             -0.0003  Tot=              4.0758
 Quadrupole moment (field-independent basis, Debye-Ang):
   XX=           -261.4540   YY=           -243.3249   ZZ=           -247.3502
   XY=              0.0012   XZ=             -3.2106   YZ=              0.0002

 Summary of Natural Population Analysis:

                                       Natural Population
                Natural  -----------------------------------------------
    Atom  No    Charge         Core      Valence    Rydberg      Total
 -----------------------------------------------------------------------
      P    1    0.84376      9.99779     4.12794    0.03051    14.15624
      C    2   -0.33380      1.99905     4.30211    0.03265     6.33380
      C    3   -0.19616      1.99911     4.17685    0.02020     6.19616
      C    4   -0.21277      1.99921     4.19595    0.01760     6.21277
      C    5   -0.21018      1.99922     4.19276    0.01821     6.21018
      C    6   -0.21624      1.99920     4.19802    0.01902     6.21624
      C    7   -0.20905      1.99910     4.18876    0.02119     6.20905
      H    8    0.23515      0.00000     0.76267    0.00218     0.76485
      H    9    0.21540      0.00000     0.78343    0.00117     0.78460
      H   10    0.22457      0.00000     0.77372    0.00171     0.77543
      C   11   -0.32533      1.99905     4.29437    0.03190     6.32533
      C   12   -0.20266      1.99910     4.18453    0.01904     6.20266
      C   13   -0.21044      1.99921     4.19337    0.01786     6.21044
      C   14   -0.21287      1.99922     4.19543    0.01822     6.21287
      C   15   -0.21659      1.99921     4.19888    0.01849     6.21659
      C   16   -0.21035      1.99912     4.19187    0.01937     6.21035
      H   17    0.22765      0.00000     0.77087    0.00148     0.77235
      H   18    0.21713      0.00000     0.78169    0.00118     0.78287
      H   19    0.22837      0.00000     0.76985    0.00178     0.77163
      C   20   -0.27851      1.99895     4.25029    0.02927     6.27851
      C   21   -0.24683      1.99911     4.22859    0.01913     6.24683
      C   22   -0.18440      1.99921     4.16765    0.01754     6.18440
      C   23   -0.30124      1.99905     4.28455    0.01764     6.30124
      C   24    0.32896      1.99868     3.64954    0.02282     5.67104
      C   25   -0.09848      1.99886     4.07243    0.02718     6.09848
      C   26   -0.09848      1.99886     4.07243    0.02718     6.09848
      C   27    0.32896      1.99868     3.64954    0.02282     5.67104
      C   28   -0.30124      1.99905     4.28455    0.01764     6.30124
      C   29   -0.18440      1.99921     4.16765    0.01754     6.18440
      C   30   -0.24683      1.99911     4.22859    0.01913     6.24683
      C   31   -0.27851      1.99895     4.25029    0.02927     6.27851
      P   32    0.84376      9.99779     4.12794    0.03051    14.15624
      C   33   -0.33380      1.99905     4.30210    0.03265     6.33380
      C   34   -0.20906      1.99910     4.18877    0.02119     6.20906
      C   35   -0.21624      1.99920     4.19802    0.01902     6.21624
      C   36   -0.21018      1.99922     4.19276    0.01821     6.21018
      C   37   -0.21277      1.99921     4.19595    0.01760     6.21277
      C   38   -0.19617      1.99911     4.17685    0.02020     6.19617
      H   39    0.22457      0.00000     0.77372    0.00171     0.77543
      H   40    0.21540      0.00000     0.78343    0.00117     0.78460
      H   41    0.23515      0.00000     0.76267    0.00218     0.76485
      C   42   -0.32533      1.99905     4.29437    0.03190     6.32533
      C   43   -0.21036      1.99912     4.19187    0.01937     6.21036
      C   44   -0.21659      1.99921     4.19888    0.01849     6.21659
      C   45   -0.21287      1.99922     4.19543    0.01822     6.21287
      C   46   -0.21044      1.99921     4.19337    0.01786     6.21044
      C   47   -0.20266      1.99910     4.18453    0.01904     6.20266
      H   48    0.22837      0.00000     0.76985    0.00178     0.77163
      H   49    0.21713      0.00000     0.78169    0.00118     0.78287
      H   50    0.22765      0.00000     0.77087    0.00148     0.77235
      H   51    0.23057      0.00000     0.76727    0.00216     0.76943
      H   52    0.21647      0.00000     0.78231    0.00122     0.78353
      H   53    0.22023      0.00000     0.77845    0.00132     0.77977
      O   54   -0.48134      1.99974     6.45727    0.02433     8.48134
      C   55   -0.07836      1.99925     4.06042    0.01869     6.07836
      H   56    0.18180      0.00000     0.81651    0.00169     0.81820
      H   57    0.18298      0.00000     0.81482    0.00220     0.81702
      C   58   -0.42668      1.99943     4.41254    0.01471     6.42668
      H   59    0.21594      0.00000     0.78255    0.00152     0.78406
      H   60    0.21658      0.00000     0.78231    0.00112     0.78342
      C   61   -0.42668      1.99943     4.41254    0.01471     6.42668
      H   62    0.21594      0.00000     0.78255    0.00152     0.78406
      H   63    0.21658      0.00000     0.78231    0.00112     0.78342
      C   64   -0.07836      1.99925     4.06042    0.01869     6.07836
      H   65    0.18180      0.00000     0.81651    0.00169     0.81820
      O   66   -0.48134      1.99974     6.45727    0.02433     8.48134
      H   67    0.18298      0.00000     0.81482    0.00220     0.81702
      H   68    0.22023      0.00000     0.77845    0.00132     0.77977
      H   69    0.21647      0.00000     0.78231    0.00122     0.78353
      H   70    0.23057      0.00000     0.76727    0.00216     0.76943
      H   71    0.21658      0.00000     0.78210    0.00132     0.78342
      H   72    0.21804      0.00000     0.78071    0.00125     0.78196
      H   73    0.21700      0.00000     0.78179    0.00121     0.78300
      H   74    0.21508      0.00000     0.78357    0.00135     0.78492
      H   75    0.21804      0.00000     0.78071    0.00125     0.78196
      H   76    0.21658      0.00000     0.78210    0.00132     0.78342
      H   77    0.21508      0.00000     0.78357    0.00135     0.78492
      H   78    0.21700      0.00000     0.78179    0.00121     0.78300
 =======================================================================
   * Total *   -0.00000    103.95974   215.03741    1.00285   320.00000

 Normal termination of Gaussian 16 at Mon Nov  1 20:10:42 2021.
