 Gaussian 16, Revision B.01,

 ----------------------------------------------------------------------
 # PBE1PBE gen pseudo=read int=(grid=ultrafine) empiricaldispersion=GD3
 BJ nmr=giao
 ----------------------------------------------------------------------

 -----
 title
 -----
 Symbolic Z-matrix:
 Charge =  0 Multiplicity = 1

 SCF Done:  E(RPBE1PBE) =  -3424.52027175     A.U. after   19 cycles

      1  Pd   Isotropic =  -164.8867   Anisotropy =   280.2382

      2  P    Isotropic =   237.9551   Anisotropy =   121.8449

      3  C    Isotropic =    50.6893   Anisotropy =   180.5968

      4  C    Isotropic =    38.7816   Anisotropy =   202.2915

      5  C    Isotropic =    50.9600   Anisotropy =   189.6094

      6  C    Isotropic =    48.8239   Anisotropy =   193.2335

      7  C    Isotropic =    53.7768   Anisotropy =   185.8123

      8  C    Isotropic =    44.1871   Anisotropy =   201.3477

      9  H    Isotropic =    23.8372   Anisotropy =     9.8529

     10  H    Isotropic =    23.8888   Anisotropy =     3.5128

     11  H    Isotropic =    21.9694   Anisotropy =    11.4082

     12  C    Isotropic =    44.4385   Anisotropy =   182.3830

     13  C    Isotropic =    47.3356   Anisotropy =   193.2338

     14  C    Isotropic =    53.5406   Anisotropy =   182.0536

     15  C    Isotropic =    49.3743   Anisotropy =   190.2176

     16  C    Isotropic =    52.7233   Anisotropy =   184.4601

     17  C    Isotropic =    36.3074   Anisotropy =   201.2193

     18  H    Isotropic =    22.2510   Anisotropy =    13.3075

     19  H    Isotropic =    23.8009   Anisotropy =     3.5534

     20  H    Isotropic =    24.2634   Anisotropy =    14.5009

     21  C    Isotropic =    42.0067   Anisotropy =   183.4493

     22  C    Isotropic =    49.6958   Anisotropy =   190.9635

     23  C    Isotropic =    51.4123   Anisotropy =   185.7822

     24  C    Isotropic =    60.7836   Anisotropy =   172.9785

     25  C    Isotropic =    17.2686   Anisotropy =   146.8198

     26  C    Isotropic =    48.7817   Anisotropy =   159.4352

     27  C    Isotropic =    47.5753   Anisotropy =   160.7072

     28  C    Isotropic =    22.8703   Anisotropy =   143.9705

     29  C    Isotropic =    63.8901   Anisotropy =   180.8582

     30  C    Isotropic =    52.0626   Anisotropy =   185.3745

     31  C    Isotropic =    50.9010   Anisotropy =   189.5817

     32  C    Isotropic =    41.0117   Anisotropy =   185.4135

     33  P    Isotropic =   238.4453   Anisotropy =   120.4901

     34  C    Isotropic =    50.8552   Anisotropy =   179.8415

     35  C    Isotropic =    43.9530   Anisotropy =   201.3526

     36  C    Isotropic =    53.5753   Anisotropy =   185.9937

     37  C    Isotropic =    48.8585   Anisotropy =   193.0772

     38  C    Isotropic =    50.9307   Anisotropy =   189.3272

     39  C    Isotropic =    38.9488   Anisotropy =   202.3665

     40  H    Isotropic =    21.9559   Anisotropy =    11.4981

     41  H    Isotropic =    23.8835   Anisotropy =     3.6070

     42  H    Isotropic =    23.7469   Anisotropy =     9.7990

     43  C    Isotropic =    44.4236   Anisotropy =   182.2887

     44  C    Isotropic =    36.2814   Anisotropy =   201.3331

     45  C    Isotropic =    52.7312   Anisotropy =   184.4805

     46  C    Isotropic =    49.3747   Anisotropy =   190.3348

     47  C    Isotropic =    53.5341   Anisotropy =   181.9494

     48  C    Isotropic =    47.1542   Anisotropy =   193.2237

     49  H    Isotropic =    24.2467   Anisotropy =    14.4091

     50  H    Isotropic =    23.8036   Anisotropy =     3.5485

     51  H    Isotropic =    22.2067   Anisotropy =    13.2382

     52  H    Isotropic =    24.8826   Anisotropy =    12.7036

     53  H    Isotropic =    24.5365   Anisotropy =     4.8162

     54  H    Isotropic =    24.7296   Anisotropy =     6.3229

     55  O    Isotropic =   206.6598   Anisotropy =   137.2422

     56  C    Isotropic =   116.2339   Anisotropy =    71.1126

     57  H    Isotropic =    27.3612   Anisotropy =     8.2676

     58  H    Isotropic =    26.7762   Anisotropy =     8.7981

     59  C    Isotropic =   160.5796   Anisotropy =    21.4352

     60  H    Isotropic =    30.1150   Anisotropy =    11.2137

     61  H    Isotropic =    29.2460   Anisotropy =     7.4616

     62  C    Isotropic =   154.8755   Anisotropy =    12.8280

     63  H    Isotropic =    29.3505   Anisotropy =     9.3939

     64  H    Isotropic =    29.9014   Anisotropy =    11.8493

     65  C    Isotropic =   111.2155   Anisotropy =    75.2266

     66  H    Isotropic =    26.8880   Anisotropy =     8.4538

     67  O    Isotropic =   218.9058   Anisotropy =   104.7720

     68  H    Isotropic =    27.6674   Anisotropy =     6.6653

     69  H    Isotropic =    24.6130   Anisotropy =     6.3211

     70  H    Isotropic =    24.5267   Anisotropy =     4.8665

     71  H    Isotropic =    24.8850   Anisotropy =    12.7610

     72  Cl   Isotropic =   847.3839   Anisotropy =   533.0259

     73  Cl   Isotropic =   849.3245   Anisotropy =   535.2913

     74  H    Isotropic =    24.0975   Anisotropy =     7.0718

     75  H    Isotropic =    23.6244   Anisotropy =     7.1686

     76  H    Isotropic =    23.8548   Anisotropy =     6.3228

     77  H    Isotropic =    24.0317   Anisotropy =     6.5332

     78  H    Isotropic =    23.6164   Anisotropy =     7.1476

     79  H    Isotropic =    24.0987   Anisotropy =     7.0661

     80  H    Isotropic =    23.9896   Anisotropy =     6.8050

     81  H    Isotropic =    23.8539   Anisotropy =     6.3156

 Normal termination of Gaussian 16 at Mon Nov  1 19:32:37 2021.
 Gaussian 16:  ES64L-G16RevB.01 20-Dec-2017

 ----------------------------------------------------------------------
 # PBE1PBE gen pseudo=read int=(grid=ultrafine) empiricaldispersion=GD3
 BJ pop=nbo guess=read geom=check
 ----------------------------------------------------------------------

 -----
 title
 -----
 Structure from the checkpoint file:  "R-C4-Tunephos_2_SPE.chk"
 Charge =  0 Multiplicity = 1

                         Standard orientation:
 ---------------------------------------------------------------------
 Center     Atomic      Atomic             Coordinates (Angstroms)
 Number     Number       Type             X           Y           Z
 ---------------------------------------------------------------------
      1         46           0        2.161744    0.791238   -0.054359
      2         15           0        1.288467   -1.319944   -0.045755
      3          6           0        0.757901   -2.004443   -1.656064
      4          6           0        1.414279   -1.539659   -2.812099
      5          6           0        1.061375   -2.058813   -4.064302
      6          6           0        0.058727   -3.034550   -4.167738
      7          6           0       -0.592738   -3.498239   -3.015313
      8          6           0       -0.244993   -2.987740   -1.758423
      9          1           0       -0.778053   -3.325358   -0.864070
     10          1           0       -0.217886   -3.432865   -5.149602
     11          1           0        2.204468   -0.786633   -2.711598
     12          6           0        2.453438   -2.555126    0.656687
     13          6           0        2.370924   -3.913396    0.302464
     14          6           0        3.215737   -4.848254    0.916824
     15          6           0        4.136519   -4.434301    1.888822
     16          6           0        4.220907   -3.078945    2.241716
     17          6           0        3.389891   -2.137811    1.623133
     18          1           0        3.477908   -1.074489    1.866333
     19          1           0        4.797068   -5.166510    2.364620
     20          1           0        1.658961   -4.240368   -0.461297
     21          6           0       -0.167778   -1.453089    1.093596
     22          6           0        0.038341   -2.023533    2.365575
     23          6           0       -1.011917   -2.111263    3.284577
     24          6           0       -2.286376   -1.653250    2.943036
     25          6           0       -2.500892   -1.082628    1.679881
     26          6           0       -1.447818   -0.950436    0.743851
     27          6           0       -1.738597   -0.323287   -0.577268
     28          6           0       -2.667753   -0.957286   -1.441246
     29          6           0       -2.932901   -0.438411   -2.718641
     30          6           0       -2.293577    0.730684   -3.137088
     31          6           0       -1.411617    1.400247   -2.284586
     32          6           0       -1.130565    0.884574   -1.003972
     33         15           0        0.108271    1.787110    0.038685
     34          6           0       -0.644501    1.993588    1.691850
     35          6           0       -2.039305    2.044425    1.878975
     36          6           0       -2.562355    2.229367    3.164785
     37          6           0       -1.699384    2.369379    4.261569
     38          6           0       -0.309822    2.325387    4.073355
     39          6           0        0.223240    2.136110    2.791917
     40          1           0        1.306403    2.111520    2.625452
     41          1           0       -2.111187    2.509550    5.266544
     42          1           0       -2.714646    1.901095    1.029605
     43          6           0        0.106829    3.463678   -0.713962
     44          6           0        1.028443    3.755977   -1.738669
     45          6           0        0.979136    4.994463   -2.389045
     46          6           0        0.025897    5.952157   -2.011331
     47          6           0       -0.882027    5.667738   -0.982299
     48          6           0       -0.847094    4.424892   -0.335012
     49          1           0       -1.552896    4.210177    0.473056
     50          1           0       -0.001692    6.925141   -2.512722
     51          1           0        1.794174    3.020233   -2.002777
     52          1           0       -0.944541    2.330762   -2.613099
     53          1           0       -2.493955    1.131196   -4.135877
     54          1           0       -3.627604   -0.950916   -3.388670
     55          8           0       -3.244674   -2.117963   -0.977552
     56          6           0       -4.611859   -2.366000   -1.370905
     57          1           0       -4.850148   -3.337070   -0.904469
     58          1           0       -4.674600   -2.507843   -2.466503
     59          6           0       -5.574384   -1.261504   -0.915011
     60          1           0       -6.498155   -1.340836   -1.516904
     61          1           0       -5.122170   -0.289597   -1.177144
     62          6           0       -5.960556   -1.265445    0.578382
     63          1           0       -6.434950   -0.298014    0.822405
     64          1           0       -6.724122   -2.043336    0.771038
     65          6           0       -4.819582   -1.532927    1.555461
     66          1           0       -5.186952   -1.426145    2.595422
     67          8           0       -3.740273   -0.610299    1.307650
     68          1           0       -4.435957   -2.563116    1.436053
     69          1           0       -3.112703   -1.716700    3.656443
     70          1           0       -0.834366   -2.546600    4.273023
     71          1           0        1.023689   -2.408669    2.635655
     72         17           0        4.242972   -0.110416   -0.792915
     73         17           0        3.158626    2.865808    0.572438
     74          1           0        3.155853   -5.902871    0.628384
     75          1           0        4.950859   -2.747113    2.986814
     76          1           0        1.571446   -1.696681   -4.962721
     77          1           0       -1.383238   -4.252162   -3.092716
     78          1           0        1.702606    5.217902   -3.179483
     79          1           0       -1.618919    6.417105   -0.674973
     80          1           0       -3.647659    2.249609    3.308411
     81          1           0        0.364914    2.435577    4.928375
 ---------------------------------------------------------------------

 SCF Done:  E(RPBE1PBE) =  -3424.52027174     A.U. after    1 cycles

 The electronic state is 1-A.
 Alpha  occ. eigenvalues -- -101.60517-101.60505 -77.26231 -77.26227 -19.25139
 Alpha  occ. eigenvalues --  -19.24623 -10.30732 -10.30400 -10.30069 -10.29605
 Alpha  occ. eigenvalues --  -10.26491 -10.26465 -10.26427 -10.26385 -10.25420
 Alpha  occ. eigenvalues --  -10.25374 -10.24957 -10.24957 -10.24923 -10.24883
 Alpha  occ. eigenvalues --  -10.24801 -10.24786 -10.24719 -10.24674 -10.24604
 Alpha  occ. eigenvalues --  -10.24536 -10.24410 -10.24334 -10.24312 -10.24267
 Alpha  occ. eigenvalues --  -10.24203 -10.24114 -10.24066 -10.24002 -10.23994
 Alpha  occ. eigenvalues --  -10.23992 -10.23920 -10.23857 -10.23749 -10.23742
 Alpha  occ. eigenvalues --  -10.23644 -10.23641 -10.23567 -10.23563 -10.23332
 Alpha  occ. eigenvalues --  -10.23328  -9.43029  -9.43017  -7.16213  -7.16202
 Alpha  occ. eigenvalues --   -7.15765  -7.15753  -7.15705  -7.15692  -6.65432
 Alpha  occ. eigenvalues --   -6.65429  -4.79026  -4.79024  -4.78990  -4.78987
 Alpha  occ. eigenvalues --   -4.78785  -4.78782  -3.51599  -2.19284  -2.19208
 Alpha  occ. eigenvalues --   -2.15930  -1.10806  -1.09731  -0.91216  -0.89289
 Alpha  occ. eigenvalues --   -0.88960  -0.88750  -0.88296  -0.88168  -0.84544
 Alpha  occ. eigenvalues --   -0.82315  -0.80868  -0.80344  -0.78845  -0.77819
 Alpha  occ. eigenvalues --   -0.77741  -0.77673  -0.77600  -0.77150  -0.77078
 Alpha  occ. eigenvalues --   -0.77006  -0.76935  -0.74299  -0.73343  -0.72658
 Alpha  occ. eigenvalues --   -0.70244  -0.69396  -0.68513  -0.65801  -0.64431
 Alpha  occ. eigenvalues --   -0.63429  -0.63253  -0.63017  -0.62816  -0.62650
 Alpha  occ. eigenvalues --   -0.62184  -0.62024  -0.61511  -0.60278  -0.58974
 Alpha  occ. eigenvalues --   -0.57867  -0.56237  -0.54627  -0.54154  -0.54018
 Alpha  occ. eigenvalues --   -0.53169  -0.52736  -0.52390  -0.51932  -0.51331
 Alpha  occ. eigenvalues --   -0.50577  -0.49265  -0.48559  -0.48042  -0.47906
 Alpha  occ. eigenvalues --   -0.47695  -0.47602  -0.47242  -0.46999  -0.46931
 Alpha  occ. eigenvalues --   -0.46677  -0.46417  -0.46020  -0.45060  -0.44436
 Alpha  occ. eigenvalues --   -0.44263  -0.44177  -0.44100  -0.43799  -0.43643
 Alpha  occ. eigenvalues --   -0.43599  -0.43018  -0.42985  -0.41555  -0.41464
 Alpha  occ. eigenvalues --   -0.41319  -0.41007  -0.40567  -0.39427  -0.38829
 Alpha  occ. eigenvalues --   -0.38707  -0.38536  -0.38333  -0.38031  -0.37794
 Alpha  occ. eigenvalues --   -0.37309  -0.37084  -0.36854  -0.36697  -0.36449
 Alpha  occ. eigenvalues --   -0.36366  -0.36024  -0.35861  -0.35519  -0.35348
 Alpha  occ. eigenvalues --   -0.34856  -0.34641  -0.33337  -0.32705  -0.32210
 Alpha  occ. eigenvalues --   -0.31356  -0.31235  -0.30134  -0.29784  -0.29312
 Alpha  occ. eigenvalues --   -0.28164  -0.27756  -0.27698  -0.27412  -0.27169
 Alpha  occ. eigenvalues --   -0.27015  -0.26685  -0.26311  -0.25917  -0.25811
 Alpha  occ. eigenvalues --   -0.25640  -0.24685  -0.24294  -0.23142  -0.22609
 Alpha  occ. eigenvalues --   -0.22413
 Alpha virt. eigenvalues --   -0.08083  -0.04544  -0.04325  -0.04008  -0.03391
 Alpha virt. eigenvalues --   -0.02908  -0.02840  -0.01849  -0.01478  -0.01455
 Alpha virt. eigenvalues --   -0.01259  -0.00529  -0.00265   0.01473   0.01529

 Mulliken charges:
               1
     1  Pd   0.060602
     2  P    0.188709
     3  C    0.070909
     4  C   -0.181041
     5  C   -0.124951
     6  C   -0.100198
     7  C   -0.149699
     8  C   -0.127482
     9  H    0.154310
    10  H    0.119532
    11  H    0.182194
    12  C    0.029798
    13  C   -0.139943
    14  C   -0.155619
    15  C   -0.093223
    16  C   -0.124867
    17  C   -0.139907
    18  H    0.184204
    19  H    0.121304
    20  H    0.141807
    21  C   -0.005712
    22  C   -0.167520
    23  C   -0.158947
    24  C   -0.208309
    25  C    0.224038
    26  C    0.058259
    27  C    0.061489
    28  C    0.213920
    29  C   -0.212753
    30  C   -0.158812
    31  C   -0.175848
    32  C    0.020401
    33  P    0.182006
    34  C    0.076426
    35  C   -0.130345
    36  C   -0.147272
    37  C   -0.101139
    38  C   -0.123567
    39  C   -0.184843
    40  H    0.178726
    41  H    0.119528
    42  H    0.156557
    43  C    0.031462
    44  C   -0.140984
    45  C   -0.125625
    46  C   -0.092847
    47  C   -0.156146
    48  C   -0.139373
    49  H    0.141525
    50  H    0.121299
    51  H    0.184668
    52  H    0.153442
    53  H    0.120336
    54  H    0.106319
    55  O   -0.268136
    56  C   -0.140752
    57  H    0.125777
    58  H    0.126525
    59  C   -0.166393
    60  H    0.119462
    61  H    0.144474
    62  C   -0.238577
    63  H    0.114547
    64  H    0.114984
    65  C   -0.089137
    66  H    0.116634
    67  O   -0.279840
    68  H    0.125929
    69  H    0.115731
    70  H    0.120919
    71  H    0.153913
    72  Cl  -0.401315
    73  Cl  -0.402776
    74  H    0.118998
    75  H    0.126067
    76  H    0.126663
    77  H    0.114303
    78  H    0.126078
    79  H    0.119033
    80  H    0.113427
    81  H    0.126667
 Sum of Mulliken charges =  -0.00000

 Dipole moment (field-independent basis, Debye):
    X=            -13.7237    Y=             -5.2198    Z=              0.1639  Tot=             14.6837
 Quadrupole moment (field-independent basis, Debye-Ang):
   XX=           -318.5555   YY=           -297.1028   ZZ=           -279.3339
   XY=             -9.6172   XZ=              5.9865   YZ=             -7.4758

 Summary of Natural Population Analysis:

                                       Natural Population
                Natural  -----------------------------------------------
    Atom  No    Charge         Core      Valence    Rydberg      Total
 -----------------------------------------------------------------------
     Pd    1   -0.19409     35.98828    10.18199    0.02382    46.19409
      P    2    1.20253      9.99555     3.74811    0.05380    13.79747
      C    3   -0.37336      1.99901     4.33756    0.03679     6.37336
      C    4   -0.17744      1.99911     4.15900    0.01933     6.17744
      C    5   -0.20817      1.99921     4.19120    0.01776     6.20817
      C    6   -0.19670      1.99922     4.17958    0.01790     6.19670
      C    7   -0.21832      1.99920     4.20035    0.01877     6.21832
      C    8   -0.20459      1.99910     4.18383    0.02166     6.20459
      H    9    0.23519      0.00000     0.76274    0.00207     0.76481
      H   10    0.21881      0.00000     0.78003    0.00116     0.78119
      H   11    0.25938      0.00000     0.73923    0.00139     0.74062
      C   12   -0.34985      1.99901     4.31393    0.03691     6.34985
      C   13   -0.19971      1.99910     4.18092    0.01970     6.19971
      C   14   -0.21310      1.99921     4.19623    0.01766     6.21310
      C   15   -0.19677      1.99922     4.17961    0.01795     6.19677
      C   16   -0.21195      1.99921     4.19434    0.01841     6.21195
      C   17   -0.17325      1.99910     4.15494    0.01920     6.17325
      H   18    0.24763      0.00000     0.75103    0.00134     0.75237
      H   19    0.21977      0.00000     0.77906    0.00116     0.78023
      H   20    0.22824      0.00000     0.77005    0.00171     0.77176
      C   21   -0.31775      1.99894     4.28548    0.03333     6.31775
      C   22   -0.21842      1.99911     4.19989    0.01942     6.21842
      C   23   -0.18450      1.99921     4.16765    0.01764     6.18450
      C   24   -0.26210      1.99906     4.24512    0.01792     6.26210
      C   25    0.32227      1.99867     3.65559    0.02347     5.67773
      C   26   -0.08116      1.99885     4.05478    0.02752     6.08116
      C   27   -0.08481      1.99886     4.05857    0.02737     6.08481
      C   28    0.32320      1.99866     3.65396    0.02417     5.67680
      C   29   -0.27614      1.99905     4.25963    0.01746     6.27614
      C   30   -0.18215      1.99921     4.16549    0.01745     6.18215
      C   31   -0.22340      1.99911     4.20533    0.01896     6.22340
      C   32   -0.31443      1.99894     4.28239    0.03310     6.31443
      P   33    1.20243      9.99555     3.74808    0.05394    13.79757
      C   34   -0.37394      1.99901     4.33830    0.03663     6.37394
      C   35   -0.20469      1.99910     4.18394    0.02166     6.20469
      C   36   -0.21683      1.99920     4.19879    0.01884     6.21683
      C   37   -0.19655      1.99922     4.17936    0.01797     6.19655
      C   38   -0.20818      1.99921     4.19117    0.01780     6.20818
      C   39   -0.17842      1.99911     4.15994    0.01936     6.17842
      H   40    0.25966      0.00000     0.73896    0.00139     0.74034
      H   41    0.21887      0.00000     0.77997    0.00116     0.78113
      H   42    0.23506      0.00000     0.76286    0.00208     0.76494
      C   43   -0.34972      1.99901     4.31399    0.03672     6.34972
      C   44   -0.17330      1.99910     4.15513    0.01907     6.17330
      C   45   -0.21186      1.99921     4.19431    0.01835     6.21186
      C   46   -0.19673      1.99922     4.17957    0.01794     6.19673
      C   47   -0.21321      1.99921     4.19635    0.01765     6.21321
      C   48   -0.19947      1.99910     4.18073    0.01965     6.19947
      H   49    0.22836      0.00000     0.76993    0.00171     0.77164
      H   50    0.21974      0.00000     0.77910    0.00116     0.78026
      H   51    0.24797      0.00000     0.75068    0.00135     0.75203
      H   52    0.24110      0.00000     0.75666    0.00224     0.75890
      H   53    0.22399      0.00000     0.77482    0.00118     0.77601
      H   54    0.22366      0.00000     0.77482    0.00152     0.77634
      O   55   -0.48414      1.99976     6.46116    0.02322     8.48414
      C   56   -0.08509      1.99925     4.06769    0.01815     6.08509
      H   57    0.19822      0.00000     0.80030    0.00148     0.80178
      H   58    0.18054      0.00000     0.81777    0.00169     0.81946
      C   59   -0.44479      1.99943     4.43078    0.01459     6.44479
      H   60    0.22255      0.00000     0.77634    0.00112     0.77745
      H   61    0.22933      0.00000     0.76911    0.00156     0.77067
      C   62   -0.42308      1.99944     4.40866    0.01497     6.42308
      H   63    0.21841      0.00000     0.78032    0.00126     0.78159
      H   64    0.21393      0.00000     0.78493    0.00114     0.78607
      C   65   -0.08306      1.99925     4.06531    0.01849     6.08306
      H   66    0.18085      0.00000     0.81749    0.00166     0.81915
      O   67   -0.49433      1.99975     6.47015    0.02443     8.49433
      H   68    0.18513      0.00000     0.81271    0.00216     0.81487
      H   69    0.22612      0.00000     0.77230    0.00158     0.77388
      H   70    0.22407      0.00000     0.77476    0.00117     0.77593
      H   71    0.24133      0.00000     0.75686    0.00181     0.75867
     Cl   72   -0.42889      9.99965     7.42042    0.00883    17.42889
     Cl   73   -0.42910      9.99965     7.42061    0.00884    17.42910
      H   74    0.22005      0.00000     0.77869    0.00126     0.77995
      H   75    0.22498      0.00000     0.77378    0.00124     0.77502
      H   76    0.22441      0.00000     0.77444    0.00116     0.77559
      H   77    0.21980      0.00000     0.77892    0.00128     0.78020
      H   78    0.22495      0.00000     0.77382    0.00123     0.77505
      H   79    0.22004      0.00000     0.77870    0.00126     0.77996
      H   80    0.22058      0.00000     0.77813    0.00130     0.77942
      H   81    0.22435      0.00000     0.77449    0.00116     0.77565
 =======================================================================
   * Total *   -0.00000    159.94262   238.94371    1.11367   400.00000

 Normal termination of Gaussian 16 at Mon Nov  1 19:35:14 2021.
