 Gaussian 16, Revision B.01,

 ----------------------------------------------------------------------
 # PBE1PBE gen pseudo=read int=(grid=ultrafine) empiricaldispersion=GD3
 BJ nmr=giao
 ----------------------------------------------------------------------

 -----
 title
 -----
 Symbolic Z-matrix:
 Charge =  0 Multiplicity = 1

 SCF Done:  E(RPBE1PBE) =  -3424.52042100     A.U. after   19 cycles

      1  Pd   Isotropic =  -166.2323   Anisotropy =   283.1757

      2  P    Isotropic =   238.9083   Anisotropy =   121.0500

      3  C    Isotropic =    50.4844   Anisotropy =   180.8388

      4  C    Isotropic =    38.8576   Anisotropy =   202.3574

      5  C    Isotropic =    50.8465   Anisotropy =   189.7062

      6  C    Isotropic =    48.8644   Anisotropy =   193.3175

      7  C    Isotropic =    54.0653   Anisotropy =   185.0872

      8  C    Isotropic =    44.1687   Anisotropy =   201.1690

      9  H    Isotropic =    23.7607   Anisotropy =     9.8624

     10  H    Isotropic =    23.8737   Anisotropy =     3.5379

     11  H    Isotropic =    22.0120   Anisotropy =    11.2843

     12  C    Isotropic =    44.3261   Anisotropy =   182.3404

     13  C    Isotropic =    47.3128   Anisotropy =   193.1571

     14  C    Isotropic =    53.5195   Anisotropy =   181.6853

     15  C    Isotropic =    49.4160   Anisotropy =   190.2264

     16  C    Isotropic =    52.7204   Anisotropy =   184.4154

     17  C    Isotropic =    36.2834   Anisotropy =   201.4545

     18  H    Isotropic =    22.2153   Anisotropy =    13.2510

     19  H    Isotropic =    23.8034   Anisotropy =     3.5697

     20  H    Isotropic =    24.2432   Anisotropy =    14.4909

     21  C    Isotropic =    41.7203   Anisotropy =   183.3446

     22  C    Isotropic =    51.7715   Anisotropy =   188.0757

     23  C    Isotropic =    51.2840   Anisotropy =   186.3881

     24  C    Isotropic =    64.6523   Anisotropy =   166.2027

     25  C    Isotropic =    18.3820   Anisotropy =   145.3753

     26  C    Isotropic =    50.5252   Anisotropy =   156.9182

     27  C    Isotropic =    50.5255   Anisotropy =   156.9169

     28  C    Isotropic =    18.3825   Anisotropy =   145.3761

     29  C    Isotropic =    64.6525   Anisotropy =   166.2025

     30  C    Isotropic =    51.2835   Anisotropy =   186.3882

     31  C    Isotropic =    51.7717   Anisotropy =   188.0756

     32  C    Isotropic =    41.7214   Anisotropy =   183.3437

     33  P    Isotropic =   238.9080   Anisotropy =   121.0462

     34  C    Isotropic =    50.4844   Anisotropy =   180.8385

     35  C    Isotropic =    44.1690   Anisotropy =   201.1687

     36  C    Isotropic =    54.0656   Anisotropy =   185.0869

     37  C    Isotropic =    48.8646   Anisotropy =   193.3174

     38  C    Isotropic =    50.8466   Anisotropy =   189.7061

     39  C    Isotropic =    38.8581   Anisotropy =   202.3582

     40  H    Isotropic =    22.0118   Anisotropy =    11.2845

     41  H    Isotropic =    23.8738   Anisotropy =     3.5380

     42  H    Isotropic =    23.7606   Anisotropy =     9.8623

     43  C    Isotropic =    44.3260   Anisotropy =   182.3406

     44  C    Isotropic =    36.2842   Anisotropy =   201.4551

     45  C    Isotropic =    52.7204   Anisotropy =   184.4152

     46  C    Isotropic =    49.4160   Anisotropy =   190.2263

     47  C    Isotropic =    53.5192   Anisotropy =   181.6849

     48  C    Isotropic =    47.3123   Anisotropy =   193.1579

     49  H    Isotropic =    24.2433   Anisotropy =    14.4912

     50  H    Isotropic =    23.8034   Anisotropy =     3.5697

     51  H    Isotropic =    22.2154   Anisotropy =    13.2508

     52  H    Isotropic =    24.9084   Anisotropy =    12.6689

     53  H    Isotropic =    24.5340   Anisotropy =     4.8337

     54  H    Isotropic =    24.9424   Anisotropy =     5.8756

     55  O    Isotropic =   198.7368   Anisotropy =   105.7307

     56  C    Isotropic =   107.3708   Anisotropy =    63.5063

     57  H    Isotropic =    26.9814   Anisotropy =     8.3115

     58  H    Isotropic =    27.5493   Anisotropy =     6.6482

     59  C    Isotropic =   151.2038   Anisotropy =    14.3358

     60  H    Isotropic =    29.7512   Anisotropy =     5.1112

     61  H    Isotropic =    29.6927   Anisotropy =    11.4304

     62  C    Isotropic =   151.2036   Anisotropy =    14.3361

     63  H    Isotropic =    29.7511   Anisotropy =     5.1115

     64  H    Isotropic =    29.6927   Anisotropy =    11.4305

     65  C    Isotropic =   107.3705   Anisotropy =    63.5073

     66  H    Isotropic =    26.9813   Anisotropy =     8.3118

     67  O    Isotropic =   198.7387   Anisotropy =   105.7296

     68  H    Isotropic =    27.5492   Anisotropy =     6.6482

     69  H    Isotropic =    24.9423   Anisotropy =     5.8757

     70  H    Isotropic =    24.5341   Anisotropy =     4.8336

     71  H    Isotropic =    24.9084   Anisotropy =    12.6686

     72  Cl   Isotropic =   849.9643   Anisotropy =   541.0225

     73  Cl   Isotropic =   849.9670   Anisotropy =   541.0125

     74  H    Isotropic =    24.1009   Anisotropy =     7.0809

     75  H    Isotropic =    23.6215   Anisotropy =     7.1678

     76  H    Isotropic =    23.8568   Anisotropy =     6.2811

     77  H    Isotropic =    24.0294   Anisotropy =     6.4923

     78  H    Isotropic =    23.6215   Anisotropy =     7.1677

     79  H    Isotropic =    24.1009   Anisotropy =     7.0811

     80  H    Isotropic =    24.0294   Anisotropy =     6.4926

     81  H    Isotropic =    23.8568   Anisotropy =     6.2811

 Normal termination of Gaussian 16 at Mon Nov  1 19:54:59 2021.
 Gaussian 16:  ES64L-G16RevB.01 20-Dec-2017

 ----------------------------------------------------------------------
 # PBE1PBE gen pseudo=read int=(grid=ultrafine) empiricaldispersion=GD3
 BJ pop=nbo guess=read geom=check
 ----------------------------------------------------------------------

 -----
 title
 -----
 Structure from the checkpoint file:  "R-C4-Tunephos_3_SPE.chk"
 Charge =  0 Multiplicity = 1

                         Standard orientation:
 ---------------------------------------------------------------------
 Center     Atomic      Atomic             Coordinates (Angstroms)
 Number     Number       Type             X           Y           Z
 ---------------------------------------------------------------------
      1         46           0       -2.307886    0.000254   -0.000054
      2         15           0       -0.741879    1.663238   -0.014049
      3          6           0       -0.044218    2.153120   -1.631654
      4          6           0       -0.846292    1.971775   -2.774631
      5          6           0       -0.360477    2.360498   -4.029728
      6          6           0        0.917410    2.926851   -4.148621
      7          6           0        1.713963    3.110545   -3.008630
      8          6           0        1.236841    2.726470   -1.749300
      9          1           0        1.873371    2.835686   -0.865531
     10          1           0        1.294722    3.224014   -5.132775
     11          1           0       -1.848016    1.541304   -2.661835
     12          6           0       -1.370652    3.215361    0.742918
     13          6           0       -0.821539    4.464086    0.401878
     14          6           0       -1.262731    5.623525    1.054645
     15          6           0       -2.243796    5.540932    2.051936
     16          6           0       -2.793867    4.295765    2.391827
     17          6           0       -2.367808    3.135460    1.735192
     18          1           0       -2.821078    2.167225    1.969105
     19          1           0       -2.588679    6.448787    2.557621
     20          1           0       -0.061297    4.535137   -0.381719
     21          6           0        0.695477    1.240470    1.075830
     22          6           0        0.728017    1.796732    2.370571
     23          6           0        1.748417    1.452251    3.260940
     24          6           0        2.770501    0.584864    2.866780
     25          6           0        2.762279    0.049590    1.568741
     26          6           0        1.702613    0.330307    0.668655
     27          6           0        1.702548   -0.330689   -0.668610
     28          6           0        2.762274   -0.050179   -1.568689
     29          6           0        2.770400   -0.585450   -2.866730
     30          6           0        1.748150   -1.452638   -3.260896
     31          6           0        0.727676   -1.796920   -2.370534
     32          6           0        0.695234   -1.240651   -1.075792
     33         15           0       -0.742255   -1.663085    0.014038
     34          6           0       -0.044791   -2.153112    1.631685
     35          6           0        1.236169   -2.726665    1.749415
     36          6           0        1.713133   -3.110846    3.008774
     37          6           0        0.916516   -2.927066    4.148705
     38          6           0       -0.361277   -2.360516    4.029724
     39          6           0       -0.846932   -1.971679    2.774601
     40          1           0       -1.848582   -1.541055    2.661736
     41          1           0        1.293703   -3.224312    5.132882
     42          1           0        1.872749   -2.835968    0.865693
     43          6           0       -1.371337   -3.215087   -0.742925
     44          6           0       -2.368431   -3.135013   -1.735244
     45          6           0       -2.794696   -4.295251   -2.391863
     46          6           0       -2.244889   -5.540520   -2.051915
     47          6           0       -1.263880   -5.623281   -1.054583
     48          6           0       -0.822484   -4.463913   -0.401830
     49          1           0       -0.062282   -4.535091    0.381795
     50          1           0       -2.589933   -6.448319   -2.557590
     51          1           0       -2.821491   -2.166693   -1.969208
     52          1           0       -0.048722   -2.498188   -2.682624
     53          1           0        1.747697   -1.865575   -4.274604
     54          1           0        3.553483   -0.300495   -3.574224
     55          8           0        3.730442    0.804446   -1.112193
     56          6           0        5.070653    0.637886   -1.603707
     57          1           0        5.294671    1.469364   -2.299283
     58          1           0        5.155373   -0.311317   -2.163793
     59          6           0        6.061532    0.634539   -0.439834
     60          1           0        5.891568    1.532882    0.183128
     61          1           0        7.065862    0.754614   -0.887884
     62          6           0        6.061419   -0.635722    0.439899
     63          1           0        5.891310   -1.534036   -0.183064
     64          1           0        7.065724   -0.755967    0.887960
     65          6           0        5.070532   -0.638901    1.603767
     66          1           0        5.294402   -1.470425    2.299336
     67          8           0        3.730289   -0.805222    1.112254
     68          1           0        5.155420    0.310281    2.163860
     69          1           0        3.553526    0.299761    3.574279
     70          1           0        1.748040    1.865189    4.274647
     71          1           0       -0.048242    2.498157    2.682653
     72         17           0       -3.952599    1.591135   -0.674137
     73         17           0       -3.953015   -1.590234    0.673950
     74          1           0       -0.840472    6.594726    0.776274
     75          1           0       -3.573719    4.227272    3.156852
     76          1           0       -0.983742    2.217961   -4.918376
     77          1           0        2.715439    3.544748   -3.098634
     78          1           0       -3.574501   -4.226623   -3.156925
     79          1           0       -0.841823   -6.594559   -0.776172
     80          1           0        2.714536   -3.545204    3.098844
     81          1           0       -0.984594   -2.217914    4.918326
 ---------------------------------------------------------------------

 SCF Done:  E(RPBE1PBE) =  -3424.52042100     A.U. after    1 cycles

 The electronic state is 1-A.
 Alpha  occ. eigenvalues -- -101.60448-101.60448 -77.26146 -77.26146 -19.25021
 Alpha  occ. eigenvalues --  -19.25020 -10.30679 -10.30679 -10.29909 -10.29909
 Alpha  occ. eigenvalues --  -10.26321 -10.26320 -10.26226 -10.26197 -10.25385
 Alpha  occ. eigenvalues --  -10.25385 -10.25096 -10.25074 -10.24897 -10.24897
 Alpha  occ. eigenvalues --  -10.24707 -10.24707 -10.24589 -10.24589 -10.24583
 Alpha  occ. eigenvalues --  -10.24583 -10.24396 -10.24396 -10.24207 -10.24207
 Alpha  occ. eigenvalues --  -10.24048 -10.24048 -10.24047 -10.24047 -10.23931
 Alpha  occ. eigenvalues --  -10.23931 -10.23901 -10.23901 -10.23685 -10.23685
 Alpha  occ. eigenvalues --  -10.23581 -10.23581 -10.23505 -10.23505 -10.23268
 Alpha  occ. eigenvalues --  -10.23268  -9.42959  -9.42959  -7.16143  -7.16143
 Alpha  occ. eigenvalues --   -7.15695  -7.15695  -7.15635  -7.15635  -6.65349
 Alpha  occ. eigenvalues --   -6.65349  -4.78942  -4.78942  -4.78908  -4.78908
 Alpha  occ. eigenvalues --   -4.78702  -4.78702  -3.51537  -2.19220  -2.19144
 Alpha  occ. eigenvalues --   -2.15871  -1.11044  -1.10102  -0.91131  -0.89243
 Alpha  occ. eigenvalues --   -0.88951  -0.88689  -0.88246  -0.88101  -0.84776
 Alpha  occ. eigenvalues --   -0.82212  -0.80901  -0.80263  -0.79297  -0.77740
 Alpha  occ. eigenvalues --   -0.77740  -0.77712  -0.77576  -0.77059  -0.77017
 Alpha  occ. eigenvalues --   -0.76943  -0.76868  -0.74144  -0.73272  -0.72593
 Alpha  occ. eigenvalues --   -0.70305  -0.69065  -0.68497  -0.65719  -0.64473
 Alpha  occ. eigenvalues --   -0.63400  -0.63256  -0.62878  -0.62743  -0.62347
 Alpha  occ. eigenvalues --   -0.62177  -0.61971  -0.61547  -0.60729  -0.58929
 Alpha  occ. eigenvalues --   -0.58302  -0.56360  -0.55357  -0.54000  -0.53999
 Alpha  occ. eigenvalues --   -0.52806  -0.52483  -0.52008  -0.51938  -0.51577
 Alpha  occ. eigenvalues --   -0.50504  -0.50186  -0.49119  -0.47958  -0.47849
 Alpha  occ. eigenvalues --   -0.47737  -0.47603  -0.47096  -0.46914  -0.46765
 Alpha  occ. eigenvalues --   -0.46416  -0.46090  -0.45655  -0.45261  -0.44504
 Alpha  occ. eigenvalues --   -0.44264  -0.44154  -0.44103  -0.43604  -0.43600
 Alpha  occ. eigenvalues --   -0.43349  -0.43000  -0.42801  -0.41500  -0.41479
 Alpha  occ. eigenvalues --   -0.41127  -0.40934  -0.39985  -0.39376  -0.39036
 Alpha  occ. eigenvalues --   -0.38866  -0.38523  -0.38440  -0.37997  -0.37806
 Alpha  occ. eigenvalues --   -0.37493  -0.37030  -0.36709  -0.36556  -0.36442
 Alpha  occ. eigenvalues --   -0.36347  -0.35977  -0.35946  -0.35548  -0.35469
 Alpha  occ. eigenvalues --   -0.34796  -0.34664  -0.33735  -0.33112  -0.32489
 Alpha  occ. eigenvalues --   -0.31314  -0.31196  -0.30025  -0.29678  -0.29245
 Alpha  occ. eigenvalues --   -0.28136  -0.27693  -0.27672  -0.27318  -0.27101
 Alpha  occ. eigenvalues --   -0.26956  -0.26648  -0.26236  -0.25782  -0.25549
 Alpha  occ. eigenvalues --   -0.25452  -0.24316  -0.24217  -0.23075  -0.22558
 Alpha  occ. eigenvalues --   -0.22316
 Alpha virt. eigenvalues --   -0.08013  -0.04475  -0.04252  -0.03906  -0.03212
 Alpha virt. eigenvalues --   -0.02756  -0.02715  -0.01822  -0.01469  -0.01316
 Alpha virt. eigenvalues --   -0.01183  -0.00350  -0.00207   0.01495   0.01694

 Mulliken charges:
               1
     1  Pd   0.048480
     2  P    0.190097
     3  C    0.078810
     4  C   -0.189369
     5  C   -0.120210
     6  C   -0.103919
     7  C   -0.147946
     8  C   -0.129808
     9  H    0.154849
    10  H    0.119291
    11  H    0.181413
    12  C    0.032555
    13  C   -0.140926
    14  C   -0.155648
    15  C   -0.093957
    16  C   -0.124014
    17  C   -0.141502
    18  H    0.185446
    19  H    0.121053
    20  H    0.141750
    21  C    0.026075
    22  C   -0.180728
    23  C   -0.166700
    24  C   -0.239645
    25  C    0.264960
    26  C    0.019447
    27  C    0.019422
    28  C    0.264981
    29  C   -0.239653
    30  C   -0.166695
    31  C   -0.180741
    32  C    0.026116
    33  P    0.190083
    34  C    0.078789
    35  C   -0.129777
    36  C   -0.147964
    37  C   -0.103903
    38  C   -0.120223
    39  C   -0.189361
    40  H    0.181404
    41  H    0.119291
    42  H    0.154849
    43  C    0.032572
    44  C   -0.141519
    45  C   -0.124012
    46  C   -0.093957
    47  C   -0.155650
    48  C   -0.140923
    49  H    0.141749
    50  H    0.121053
    51  H    0.185438
    52  H    0.152864
    53  H    0.119921
    54  H    0.139586
    55  O   -0.263435
    56  C   -0.142701
    57  H    0.120661
    58  H    0.113520
    59  C   -0.152693
    60  H    0.105621
    61  H    0.119308
    62  C   -0.152696
    63  H    0.105622
    64  H    0.119308
    65  C   -0.142698
    66  H    0.120662
    67  O   -0.263436
    68  H    0.113519
    69  H    0.139587
    70  H    0.119922
    71  H    0.152864
    72  Cl  -0.402223
    73  Cl  -0.402232
    74  H    0.118706
    75  H    0.125957
    76  H    0.126490
    77  H    0.112810
    78  H    0.125957
    79  H    0.118706
    80  H    0.112810
    81  H    0.126490
 Sum of Mulliken charges =  -0.00000

 Dipole moment (field-independent basis, Debye):
    X=             15.0042    Y=             -0.0016    Z=              0.0003  Tot=             15.0042
 Quadrupole moment (field-independent basis, Debye-Ang):
   XX=           -320.7843   YY=           -294.0992   ZZ=           -278.5695
   XY=              0.0039   XZ=             -0.0008   YZ=              7.4687

 Summary of Natural Population Analysis:

                                       Natural Population
                Natural  -----------------------------------------------
    Atom  No    Charge         Core      Valence    Rydberg      Total
 -----------------------------------------------------------------------
     Pd    1   -0.19476     35.98824    10.18280    0.02372    46.19476
      P    2    1.20335      9.99555     3.74711    0.05399    13.79665
      C    3   -0.37259      1.99901     4.33679    0.03678     6.37259
      C    4   -0.17698      1.99911     4.15851    0.01936     6.17698
      C    5   -0.20800      1.99921     4.19099    0.01780     6.20800
      C    6   -0.19712      1.99922     4.17988    0.01802     6.19712
      C    7   -0.21917      1.99920     4.20109    0.01888     6.21917
      C    8   -0.20481      1.99910     4.18406    0.02165     6.20481
      H    9    0.23523      0.00000     0.76268    0.00210     0.76477
      H   10    0.21876      0.00000     0.78008    0.00116     0.78124
      H   11    0.25909      0.00000     0.73954    0.00138     0.74091
      C   12   -0.34936      1.99901     4.31364    0.03671     6.34936
      C   13   -0.19944      1.99910     4.18072    0.01963     6.19944
      C   14   -0.21315      1.99921     4.19629    0.01765     6.21315
      C   15   -0.19681      1.99922     4.17965    0.01795     6.19681
      C   16   -0.21177      1.99921     4.19421    0.01835     6.21177
      C   17   -0.17300      1.99910     4.15483    0.01907     6.17300
      H   18    0.24766      0.00000     0.75100    0.00135     0.75234
      H   19    0.21963      0.00000     0.77920    0.00116     0.78037
      H   20    0.22805      0.00000     0.77024    0.00171     0.77195
      C   21   -0.31516      1.99894     4.28292    0.03330     6.31516
      C   22   -0.22780      1.99911     4.20958    0.01910     6.22780
      C   23   -0.18094      1.99921     4.16386    0.01787     6.18094
      C   24   -0.27977      1.99906     4.26282    0.01789     6.27977
      C   25    0.32835      1.99868     3.64966    0.02331     5.67165
      C   26   -0.08448      1.99887     4.05827    0.02734     6.08448
      C   27   -0.08448      1.99887     4.05827    0.02734     6.08448
      C   28    0.32835      1.99868     3.64966    0.02331     5.67165
      C   29   -0.27977      1.99906     4.26282    0.01789     6.27977
      C   30   -0.18094      1.99921     4.16386    0.01787     6.18094
      C   31   -0.22780      1.99911     4.20958    0.01910     6.22780
      C   32   -0.31516      1.99894     4.28292    0.03330     6.31516
      P   33    1.20335      9.99555     3.74711    0.05399    13.79665
      C   34   -0.37259      1.99901     4.33679    0.03678     6.37259
      C   35   -0.20481      1.99910     4.18406    0.02165     6.20481
      C   36   -0.21917      1.99920     4.20109    0.01888     6.21917
      C   37   -0.19712      1.99922     4.17988    0.01802     6.19712
      C   38   -0.20800      1.99921     4.19099    0.01780     6.20800
      C   39   -0.17699      1.99911     4.15851    0.01936     6.17699
      H   40    0.25909      0.00000     0.73953    0.00138     0.74091
      H   41    0.21876      0.00000     0.78008    0.00116     0.78124
      H   42    0.23523      0.00000     0.76267    0.00210     0.76477
      C   43   -0.34936      1.99901     4.31364    0.03671     6.34936
      C   44   -0.17300      1.99910     4.15483    0.01907     6.17300
      C   45   -0.21177      1.99921     4.19421    0.01835     6.21177
      C   46   -0.19681      1.99922     4.17965    0.01795     6.19681
      C   47   -0.21315      1.99921     4.19629    0.01765     6.21315
      C   48   -0.19945      1.99910     4.18072    0.01963     6.19945
      H   49    0.22805      0.00000     0.77024    0.00171     0.77195
      H   50    0.21963      0.00000     0.77920    0.00116     0.78037
      H   51    0.24766      0.00000     0.75100    0.00135     0.75234
      H   52    0.24053      0.00000     0.75721    0.00227     0.75947
      H   53    0.22356      0.00000     0.77526    0.00118     0.77644
      H   54    0.22606      0.00000     0.77254    0.00140     0.77394
      O   55   -0.47958      1.99974     6.45553    0.02432     8.47958
      C   56   -0.07923      1.99925     4.06131    0.01866     6.07923
      H   57    0.18512      0.00000     0.81323    0.00165     0.81488
      H   58    0.18309      0.00000     0.81463    0.00228     0.81691
      C   59   -0.42765      1.99943     4.41355    0.01467     6.42765
      H   60    0.21672      0.00000     0.78179    0.00149     0.78328
      H   61    0.22037      0.00000     0.77855    0.00108     0.77963
      C   62   -0.42765      1.99943     4.41355    0.01467     6.42765
      H   63    0.21672      0.00000     0.78179    0.00149     0.78328
      H   64    0.22037      0.00000     0.77855    0.00108     0.77963
      C   65   -0.07923      1.99925     4.06131    0.01866     6.07923
      H   66    0.18512      0.00000     0.81323    0.00165     0.81488
      O   67   -0.47958      1.99974     6.45553    0.02432     8.47958
      H   68    0.18309      0.00000     0.81463    0.00228     0.81691
      H   69    0.22606      0.00000     0.77255    0.00140     0.77394
      H   70    0.22356      0.00000     0.77526    0.00118     0.77644
      H   71    0.24053      0.00000     0.75721    0.00227     0.75947
     Cl   72   -0.42924      9.99965     7.42077    0.00881    17.42924
     Cl   73   -0.42924      9.99965     7.42078    0.00881    17.42924
      H   74    0.21987      0.00000     0.77887    0.00126     0.78013
      H   75    0.22488      0.00000     0.77388    0.00123     0.77512
      H   76    0.22436      0.00000     0.77448    0.00116     0.77564
      H   77    0.21877      0.00000     0.77992    0.00131     0.78123
      H   78    0.22488      0.00000     0.77389    0.00123     0.77512
      H   79    0.21987      0.00000     0.77887    0.00126     0.78013
      H   80    0.21877      0.00000     0.77992    0.00131     0.78123
      H   81    0.22436      0.00000     0.77448    0.00116     0.77564
 =======================================================================
   * Total *   -0.00000    159.94262   238.94109    1.11628   400.00000

 Normal termination of Gaussian 16 at Mon Nov  1 19:57:39 2021.
