 Gaussian 09, Revision E.01,

 ----------------------------------------------------------------------
 # PBE1PBE/def2TZVP int=(grid=ultrafine) empiricaldispersion=GD3BJ nmr=
 giao
 ----------------------------------------------------------------------

 -----------------
 R_SegPhos_1 title
 -----------------
 Symbolic Z-matrix:
 Charge =  0 Multiplicity = 1

 SCF Done:  E(RPBE1PBE) =  -2446.91193844     A.U. after   15 cycles

      1  P    Isotropic =   294.3365   Anisotropy =    53.1343

      2  P    Isotropic =   294.3614   Anisotropy =    53.1219

      3  C    Isotropic =    45.8856   Anisotropy =   177.2095

      4  C    Isotropic =    45.8768   Anisotropy =   177.2187

      5  C    Isotropic =    61.6208   Anisotropy =   148.0450

      6  C    Isotropic =    31.6591   Anisotropy =   106.1464

      7  C    Isotropic =    31.6296   Anisotropy =   106.2726

      8  C    Isotropic =    73.5525   Anisotropy =   149.3803

      9  C    Isotropic =    55.6680   Anisotropy =   177.2086

     10  C    Isotropic =    55.6671   Anisotropy =   177.2123

     11  C    Isotropic =    73.5542   Anisotropy =   149.3745

     12  C    Isotropic =    31.6293   Anisotropy =   106.2685

     13  C    Isotropic =    31.6581   Anisotropy =   106.1470

     14  C    Isotropic =    61.6191   Anisotropy =   148.0453

     15  C    Isotropic =    41.0790   Anisotropy =   204.2356

     16  C    Isotropic =    40.9482   Anisotropy =   207.7030

     17  C    Isotropic =    41.0834   Anisotropy =   204.2415

     18  C    Isotropic =    40.9493   Anisotropy =   207.7002

     19  C    Isotropic =    44.6635   Anisotropy =   195.6475

     20  C    Isotropic =    50.5084   Anisotropy =   186.1250

     21  C    Isotropic =    51.9301   Anisotropy =   186.5017

     22  C    Isotropic =    52.6765   Anisotropy =   183.2519

     23  C    Isotropic =    43.4531   Anisotropy =   183.9861

     24  C    Isotropic =    41.2544   Anisotropy =   199.3457

     25  C    Isotropic =    52.4217   Anisotropy =   186.0003

     26  C    Isotropic =    51.1784   Anisotropy =   190.9174

     27  C    Isotropic =    51.7924   Anisotropy =   188.1531

     28  C    Isotropic =    42.2362   Anisotropy =   188.4369

     29  C    Isotropic =    41.2574   Anisotropy =   199.3486

     30  C    Isotropic =    52.4195   Anisotropy =   186.0032

     31  C    Isotropic =    51.1787   Anisotropy =   190.9139

     32  C    Isotropic =    51.7934   Anisotropy =   188.1476

     33  C    Isotropic =    42.2382   Anisotropy =   188.4326

     34  C    Isotropic =    44.6602   Anisotropy =   195.6472

     35  C    Isotropic =    50.5079   Anisotropy =   186.1254

     36  C    Isotropic =    51.9293   Anisotropy =   186.5045

     37  C    Isotropic =    52.6771   Anisotropy =   183.2506

     38  C    Isotropic =    43.4510   Anisotropy =   183.9836

     39  O    Isotropic =   195.0899   Anisotropy =   122.9897

     40  C    Isotropic =    77.6797   Anisotropy =    51.6603

     41  O    Isotropic =   199.0831   Anisotropy =   142.0912

     42  O    Isotropic =   199.0846   Anisotropy =   142.0981

     43  C    Isotropic =    77.6796   Anisotropy =    51.6675

     44  O    Isotropic =   195.0844   Anisotropy =   122.9893

     45  H    Isotropic =    25.2321   Anisotropy =     3.9019

     46  H    Isotropic =    25.3932   Anisotropy =    12.5499

     47  H    Isotropic =    25.3932   Anisotropy =    12.5505

     48  H    Isotropic =    25.2322   Anisotropy =     3.9022

     49  H    Isotropic =    23.7725   Anisotropy =    14.4127

     50  H    Isotropic =    23.8954   Anisotropy =     7.0058

     51  H    Isotropic =    23.8431   Anisotropy =     3.8847

     52  H    Isotropic =    23.6768   Anisotropy =     5.8194

     53  H    Isotropic =    23.1893   Anisotropy =    10.0537

     54  H    Isotropic =    23.5304   Anisotropy =    10.3661

     55  H    Isotropic =    24.0003   Anisotropy =     5.5874

     56  H    Isotropic =    23.9274   Anisotropy =     3.3363

     57  H    Isotropic =    24.0551   Anisotropy =     5.1342

     58  H    Isotropic =    23.4896   Anisotropy =     7.5252

     59  H    Isotropic =    23.5294   Anisotropy =    10.3675

     60  H    Isotropic =    24.0005   Anisotropy =     5.5895

     61  H    Isotropic =    23.9276   Anisotropy =     3.3376

     62  H    Isotropic =    24.0550   Anisotropy =     5.1336

     63  H    Isotropic =    23.4895   Anisotropy =     7.5293

     64  H    Isotropic =    23.7737   Anisotropy =    14.4125

     65  H    Isotropic =    23.8955   Anisotropy =     7.0060

     66  H    Isotropic =    23.8431   Anisotropy =     3.8846

     67  H    Isotropic =    23.6768   Anisotropy =     5.8191

     68  H    Isotropic =    23.1890   Anisotropy =    10.0531

     69  H    Isotropic =    25.4909   Anisotropy =     5.4683

     70  H    Isotropic =    25.5106   Anisotropy =     8.0492

     71  H    Isotropic =    25.5108   Anisotropy =     8.0516

     72  H    Isotropic =    25.4908   Anisotropy =     5.4645

 Normal termination of Gaussian 09 at Mon Dec  6 08:33:57 2021.
 Gaussian 09:  ES64L-G09RevE.01 30-Nov-2015

 ----------------------------------------------------------------------
 # PBE1PBE/def2TZVP int=(grid=ultrafine) empiricaldispersion=GD3BJ pop=
 nbo guess=read geom=check
 ----------------------------------------------------------------------

 -----------------
 R_SegPhos_1 title
 -----------------
 Structure from the checkpoint file:  "R_SegPhos_1_SPE_NoPd.chk"
 Charge =  0 Multiplicity = 1

                         Standard orientation:
 ---------------------------------------------------------------------
 Center     Atomic      Atomic             Coordinates (Angstroms)
 Number     Number       Type             X           Y           Z
 ---------------------------------------------------------------------
      1         15           0        1.685582   -0.117390   -1.324718
      2         15           0       -1.685011    0.117018   -1.325220
      3          6           0        1.377628    0.986821    0.118201
      4          6           0       -1.377606   -0.986855    0.118057
      5          6           0        0.383444    0.637107    1.087945
      6          6           0        0.163452    1.570942    2.094675
      7          6           0        0.827103    2.803188    2.156579
      8          6           0        1.781474    3.160142    1.217855
      9          6           0        2.046067    2.221881    0.198582
     10          6           0       -2.046273   -2.221768    0.198655
     11          6           0       -1.782294   -3.159625    1.218461
     12          6           0       -0.828311   -2.802399    2.157476
     13          6           0       -0.164362   -1.570322    2.095285
     14          6           0       -0.383724   -0.636913    1.088023
     15          6           0        3.272051    0.523719   -1.991956
     16          6           0        2.045695   -1.761318   -0.605256
     17          6           0       -3.271231   -0.524267   -1.992814
     18          6           0       -2.045334    1.761071   -0.606145
     19          6           0       -4.512061   -0.060350   -1.523001
     20          6           0       -5.699056   -0.634418   -1.999739
     21          6           0       -5.652434   -1.675837   -2.935950
     22          6           0       -4.414520   -2.137907   -3.408242
     23          6           0       -3.226284   -1.559376   -2.948439
     24          6           0       -2.729073    1.901266    0.617859
     25          6           0       -2.991076    3.180369    1.125699
     26          6           0       -2.556960    4.317890    0.427322
     27          6           0       -1.873594    4.176825   -0.789582
     28          6           0       -1.621868    2.901949   -1.313063
     29          6           0        2.728443   -1.901329    0.619323
     30          6           0        2.990506   -3.180366    1.127299
     31          6           0        2.557359   -4.318008    0.428515
     32          6           0        1.874915   -4.177125   -0.788926
     33          6           0        1.623171   -2.902311   -1.312553
     34          6           0        4.512728    0.060038   -1.521487
     35          6           0        5.699882    0.633973   -1.997990
     36          6           0        5.653580    1.675006   -2.934646
     37          6           0        4.415832    2.136813   -3.407619
     38          6           0        3.227441    1.558411   -2.948048
     39          8           0        0.720590   -1.463319    3.144242
     40          6           0        0.662411   -2.727029    3.831446
     41          8           0       -0.394196   -3.514474    3.249025
     42          8           0        0.392187    3.515783    3.247462
     43          6           0       -0.664249    2.728217    3.830041
     44          8           0       -0.722104    1.464325    3.143151
     45          1           0        2.304373    4.117988    1.264316
     46          1           0        2.798329    2.470595   -0.553158
     47          1           0       -2.798274   -2.470652   -0.553293
     48          1           0       -2.305432   -4.117329    1.265157
     49          1           0       -4.556235    0.758841   -0.799501
     50          1           0       -6.663030   -0.259569   -1.640343
     51          1           0       -6.581343   -2.120173   -3.307984
     52          1           0       -4.372167   -2.936864   -4.155195
     53          1           0       -2.260204   -1.886421   -3.345959
     54          1           0       -3.029590    1.012548    1.182484
     55          1           0       -3.536232    3.288543    2.069922
     56          1           0       -2.753614    5.315986    0.832288
     57          1           0       -1.536414    5.063221   -1.336208
     58          1           0       -1.106285    2.772113   -2.271383
     59          1           0        3.028190   -1.012530    1.184232
     60          1           0        3.534953   -3.288399    2.071946
     61          1           0        2.754051   -5.316053    0.833587
     62          1           0        1.538500   -5.063613   -1.335874
     63          1           0        1.108346   -2.772610   -2.271300
     64          1           0        4.556671   -0.758868   -0.797657
     65          1           0        6.663733    0.259314   -1.638066
     66          1           0        6.582615    2.119227   -3.306504
     67          1           0        4.373733    2.935456   -4.154922
     68          1           0        2.261503    1.885243   -3.346082
     69          1           0        1.624533   -3.257946    3.700680
     70          1           0        0.440793   -2.551888    4.898999
     71          1           0       -0.442621    2.553389    4.897652
     72          1           0       -1.626493    3.258865    3.699124
 ---------------------------------------------------------------------

 SCF Done:  E(RPBE1PBE) =  -2446.91193844     A.U. after    3 cycles

 The electronic state is 1-A.
 Alpha  occ. eigenvalues --  -77.19303 -77.19302 -19.25342 -19.25342 -19.25321
 Alpha  occ. eigenvalues --  -19.25321 -10.34277 -10.34277 -10.28656 -10.28656
 Alpha  occ. eigenvalues --  -10.28551 -10.28551 -10.24681 -10.24650 -10.23905
 Alpha  occ. eigenvalues --  -10.23904 -10.23717 -10.23717 -10.23655 -10.23655
 Alpha  occ. eigenvalues --  -10.23454 -10.23454 -10.23301 -10.23300 -10.23300
 Alpha  occ. eigenvalues --  -10.23300 -10.23287 -10.23287 -10.23275 -10.23275
 Alpha  occ. eigenvalues --  -10.23193 -10.23193 -10.23185 -10.23184 -10.23175
 Alpha  occ. eigenvalues --  -10.23175 -10.23109 -10.23109 -10.23084 -10.23084
 Alpha  occ. eigenvalues --  -10.22965 -10.22965 -10.22534 -10.22533  -6.58928
 Alpha  occ. eigenvalues --   -6.58928  -4.72519  -4.72518  -4.72513  -4.72512
 Alpha  occ. eigenvalues --   -4.72059  -4.72059  -1.15213  -1.15122  -1.06355
 Alpha  occ. eigenvalues --   -1.06185  -0.89580  -0.88131  -0.87925  -0.87618
 Alpha  occ. eigenvalues --   -0.87578  -0.87174  -0.80539  -0.79230  -0.79202
 Alpha  occ. eigenvalues --   -0.77223  -0.77167  -0.76852  -0.76851  -0.76703
 Alpha  occ. eigenvalues --   -0.76690  -0.76230  -0.76200  -0.74970  -0.69912
 Alpha  occ. eigenvalues --   -0.69541  -0.66611  -0.65828  -0.65509  -0.63201
 Alpha  occ. eigenvalues --   -0.62909  -0.62484  -0.62369  -0.62004  -0.61964
 Alpha  occ. eigenvalues --   -0.61405  -0.61291  -0.61035  -0.57622  -0.57391
 Alpha  occ. eigenvalues --   -0.54552  -0.53921  -0.53727  -0.53246  -0.53027
 Alpha  occ. eigenvalues --   -0.52809  -0.52671  -0.51746  -0.51720  -0.50677
 Alpha  occ. eigenvalues --   -0.49079  -0.48937  -0.46869  -0.46824  -0.46570
 Alpha  occ. eigenvalues --   -0.46427  -0.46202  -0.46175  -0.45758  -0.45668
 Alpha  occ. eigenvalues --   -0.45543  -0.44586  -0.44554  -0.43545  -0.43442
 Alpha  occ. eigenvalues --   -0.43276  -0.43234  -0.42884  -0.42653  -0.41347
 Alpha  occ. eigenvalues --   -0.41222  -0.40915  -0.40585  -0.40100  -0.39435
 Alpha  occ. eigenvalues --   -0.39349  -0.39171  -0.38856  -0.38648  -0.38615
 Alpha  occ. eigenvalues --   -0.38074  -0.37692  -0.37635  -0.37481  -0.35745
 Alpha  occ. eigenvalues --   -0.35672  -0.35666  -0.35552  -0.35401  -0.34289
 Alpha  occ. eigenvalues --   -0.34272  -0.33290  -0.33209  -0.32822  -0.32675
 Alpha  occ. eigenvalues --   -0.28044  -0.27876  -0.27081  -0.27052  -0.26778
 Alpha  occ. eigenvalues --   -0.26664  -0.26619  -0.26605  -0.25556  -0.25421
 Alpha  occ. eigenvalues --   -0.23090  -0.22828  -0.20746  -0.18519
 Alpha virt. eigenvalues --   -0.03085  -0.03050  -0.02742  -0.02019  -0.01785
 Alpha virt. eigenvalues --   -0.01393  -0.00898  -0.00834  -0.00529   0.00157
 Alpha virt. eigenvalues --    0.01088   0.01110   0.04268   0.04424   0.05247

 Mulliken charges:
               1
     1  P    0.043834
     2  P    0.043866
     3  C   -0.028904
     4  C   -0.029053
     5  C    0.041562
     6  C    0.185660
     7  C    0.106496
     8  C   -0.295907
     9  C   -0.139851
    10  C   -0.139819
    11  C   -0.295883
    12  C    0.106512
    13  C    0.185683
    14  C    0.041502
    15  C    0.064457
    16  C    0.167912
    17  C    0.064445
    18  C    0.167971
    19  C   -0.125447
    20  C   -0.151331
    21  C   -0.105068
    22  C   -0.105082
    23  C   -0.217365
    24  C   -0.184094
    25  C   -0.149723
    26  C   -0.114748
    27  C   -0.110210
    28  C   -0.202849
    29  C   -0.183910
    30  C   -0.149743
    31  C   -0.114739
    32  C   -0.110227
    33  C   -0.202869
    34  C   -0.125472
    35  C   -0.151295
    36  C   -0.105062
    37  C   -0.105095
    38  C   -0.217355
    39  O   -0.273960
    40  C    0.135528
    41  O   -0.255126
    42  O   -0.255137
    43  C    0.135534
    44  O   -0.273964
    45  H    0.115444
    46  H    0.140832
    47  H    0.140829
    48  H    0.115446
    49  H    0.142296
    50  H    0.116383
    51  H    0.118418
    52  H    0.118103
    53  H    0.126003
    54  H    0.155344
    55  H    0.121912
    56  H    0.115891
    57  H    0.115072
    58  H    0.125896
    59  H    0.155298
    60  H    0.121907
    61  H    0.115896
    62  H    0.115078
    63  H    0.125891
    64  H    0.142281
    65  H    0.116385
    66  H    0.118420
    67  H    0.118103
    68  H    0.126014
    69  H    0.085535
    70  H    0.117056
    71  H    0.117026
    72  H    0.085568
 Sum of Mulliken charges =  -0.00000

 Dipole moment (field-independent basis, Debye):
    X=             -0.0001    Y=              0.0004    Z=              1.9800  Tot=              1.9800
 Quadrupole moment (field-independent basis, Debye-Ang):
   XX=           -250.7838   YY=           -246.8187   ZZ=           -251.3844
   XY=             -1.1833   XZ=             -0.0023   YZ=              0.0020

 Summary of Natural Population Analysis:

                                       Natural Population
                Natural  -----------------------------------------------
    Atom  No    Charge         Core      Valence    Rydberg      Total
 -----------------------------------------------------------------------
      P    1    0.84596      9.99780     4.12497    0.03126    14.15404
      P    2    0.84596      9.99780     4.12498    0.03126    14.15404
      C    3   -0.30702      1.99899     4.27880    0.02923     6.30702
      C    4   -0.30701      1.99899     4.27879    0.02923     6.30701
      C    5   -0.09823      1.99885     4.07284    0.02653     6.09823
      C    6    0.25267      1.99854     3.72500    0.02379     5.74733
      C    7    0.22264      1.99864     3.75571    0.02302     5.77736
      C    8   -0.25180      1.99907     4.23574    0.01700     6.25180
      C    9   -0.22029      1.99914     4.20217    0.01898     6.22029
      C   10   -0.22029      1.99914     4.20217    0.01898     6.22029
      C   11   -0.25180      1.99907     4.23573    0.01700     6.25180
      C   12    0.22262      1.99864     3.75572    0.02302     5.77738
      C   13    0.25267      1.99854     3.72501    0.02379     5.74733
      C   14   -0.09822      1.99885     4.07283    0.02653     6.09822
      C   15   -0.32690      1.99905     4.29586    0.03199     6.32690
      C   16   -0.33298      1.99904     4.30145    0.03249     6.33298
      C   17   -0.32691      1.99905     4.29586    0.03199     6.32691
      C   18   -0.33298      1.99904     4.30145    0.03249     6.33298
      C   19   -0.20515      1.99910     4.18683    0.01923     6.20515
      C   20   -0.20985      1.99921     4.19272    0.01791     6.20985
      C   21   -0.21296      1.99922     4.19549    0.01826     6.21296
      C   22   -0.21613      1.99921     4.19837    0.01856     6.21613
      C   23   -0.21041      1.99912     4.19176    0.01952     6.21041
      C   24   -0.21081      1.99909     4.19108    0.02065     6.21081
      C   25   -0.22663      1.99921     4.20831    0.01911     6.22663
      C   26   -0.20968      1.99922     4.19232    0.01815     6.20968
      C   27   -0.21147      1.99921     4.19452    0.01775     6.21147
      C   28   -0.19227      1.99911     4.17356    0.01959     6.19227
      C   29   -0.21081      1.99909     4.19108    0.02065     6.21081
      C   30   -0.22662      1.99921     4.20830    0.01911     6.22662
      C   31   -0.20968      1.99922     4.19232    0.01815     6.20968
      C   32   -0.21147      1.99921     4.19452    0.01775     6.21147
      C   33   -0.19228      1.99911     4.17357    0.01959     6.19228
      C   34   -0.20514      1.99910     4.18682    0.01923     6.20514
      C   35   -0.20985      1.99921     4.19273    0.01791     6.20985
      C   36   -0.21295      1.99922     4.19548    0.01826     6.21295
      C   37   -0.21613      1.99921     4.19837    0.01856     6.21613
      C   38   -0.21040      1.99912     4.19176    0.01952     6.21040
      O   39   -0.44801      1.99977     6.42617    0.02207     8.44801
      C   40    0.20777      1.99939     3.77296    0.01988     5.79223
      O   41   -0.44498      1.99977     6.42331    0.02190     8.44498
      O   42   -0.44498      1.99977     6.42331    0.02190     8.44498
      C   43    0.20777      1.99939     3.77295    0.01988     5.79223
      O   44   -0.44800      1.99977     6.42616    0.02207     8.44800
      H   45    0.23202      0.00000     0.76673    0.00125     0.76798
      H   46    0.23333      0.00000     0.76491    0.00177     0.76667
      H   47    0.23333      0.00000     0.76491    0.00177     0.76667
      H   48    0.23202      0.00000     0.76673    0.00125     0.76798
      H   49    0.22729      0.00000     0.77082    0.00189     0.77271
      H   50    0.21711      0.00000     0.78158    0.00132     0.78289
      H   51    0.21783      0.00000     0.78100    0.00117     0.78217
      H   52    0.21861      0.00000     0.78014    0.00125     0.78139
      H   53    0.22737      0.00000     0.77116    0.00147     0.77263
      H   54    0.23221      0.00000     0.76542    0.00237     0.76779
      H   55    0.21444      0.00000     0.78401    0.00155     0.78556
      H   56    0.21800      0.00000     0.78082    0.00118     0.78200
      H   57    0.21891      0.00000     0.77983    0.00127     0.78109
      H   58    0.22615      0.00000     0.77194    0.00191     0.77385
      H   59    0.23222      0.00000     0.76542    0.00237     0.76778
      H   60    0.21444      0.00000     0.78401    0.00155     0.78556
      H   61    0.21800      0.00000     0.78082    0.00118     0.78200
      H   62    0.21890      0.00000     0.77983    0.00127     0.78110
      H   63    0.22614      0.00000     0.77194    0.00191     0.77386
      H   64    0.22729      0.00000     0.77082    0.00189     0.77271
      H   65    0.21711      0.00000     0.78157    0.00132     0.78289
      H   66    0.21783      0.00000     0.78100    0.00117     0.78217
      H   67    0.21861      0.00000     0.78014    0.00125     0.78139
      H   68    0.22737      0.00000     0.77116    0.00147     0.77263
      H   69    0.15795      0.00000     0.84007    0.00199     0.84205
      H   70    0.16533      0.00000     0.83311    0.00156     0.83467
      H   71    0.16530      0.00000     0.83314    0.00156     0.83470
      H   72    0.15797      0.00000     0.84004    0.00199     0.84203
 =======================================================================
   * Total *    0.00000    103.95950   213.02286    1.01763   318.00000

 Normal termination of Gaussian 09 at Mon Dec  6 08:46:10 2021.
