 Gaussian 09, Revision E.01,

 ----------------------------------------------------------------------
 # PBE1PBE gen pseudo=read int=(grid=ultrafine) empiricaldispersion=GD3
 BJ nmr=giao
 ----------------------------------------------------------------------

 -----------------
 R_SegPhos_1 title
 -----------------
 Symbolic Z-matrix:
 Charge =  0 Multiplicity = 1

 SCF Done:  E(RPBE1PBE) =  -3495.10331977     A.U. after   19 cycles

      1  P    Isotropic =   239.1642   Anisotropy =   129.7042

      2  P    Isotropic =   239.1618   Anisotropy =   129.7297

      3  C    Isotropic =    51.3236   Anisotropy =   169.4868

      4  C    Isotropic =    51.3165   Anisotropy =   169.4914

      5  C    Isotropic =    61.4082   Anisotropy =   147.3526

      6  C    Isotropic =    31.2361   Anisotropy =   107.2714

      7  C    Isotropic =    27.8874   Anisotropy =   111.6850

      8  C    Isotropic =    73.3250   Anisotropy =   150.9054

      9  C    Isotropic =    49.4417   Anisotropy =   186.7153

     10  C    Isotropic =    49.4410   Anisotropy =   186.7174

     11  C    Isotropic =    73.3249   Anisotropy =   150.8933

     12  C    Isotropic =    27.8868   Anisotropy =   111.6753

     13  C    Isotropic =    31.2327   Anisotropy =   107.2735

     14  C    Isotropic =    61.4021   Anisotropy =   147.3569

     15  C    Isotropic =    44.7290   Anisotropy =   182.4026

     16  C    Isotropic =    48.7895   Anisotropy =   182.7950

     17  C    Isotropic =    44.7302   Anisotropy =   182.4151

     18  C    Isotropic =    48.7899   Anisotropy =   182.7937

     19  C    Isotropic =    47.9931   Anisotropy =   192.5053

     20  C    Isotropic =    53.3341   Anisotropy =   182.1109

     21  C    Isotropic =    49.3445   Anisotropy =   190.4168

     22  C    Isotropic =    52.5114   Anisotropy =   184.9116

     23  C    Isotropic =    36.8436   Anisotropy =   200.9524

     24  C    Isotropic =    44.4991   Anisotropy =   199.1377

     25  C    Isotropic =    53.8038   Anisotropy =   184.8567

     26  C    Isotropic =    48.7874   Anisotropy =   194.3440

     27  C    Isotropic =    50.4019   Anisotropy =   190.8407

     28  C    Isotropic =    37.6610   Anisotropy =   201.5905

     29  C    Isotropic =    44.5027   Anisotropy =   199.1398

     30  C    Isotropic =    53.8016   Anisotropy =   184.8555

     31  C    Isotropic =    48.7844   Anisotropy =   194.3400

     32  C    Isotropic =    50.4024   Anisotropy =   190.8367

     33  C    Isotropic =    37.6628   Anisotropy =   201.6034

     34  C    Isotropic =    47.9923   Anisotropy =   192.5067

     35  C    Isotropic =    53.3349   Anisotropy =   182.1127

     36  C    Isotropic =    49.3439   Anisotropy =   190.4201

     37  C    Isotropic =    52.5122   Anisotropy =   184.9099

     38  C    Isotropic =    36.8380   Anisotropy =   200.9513

     39  Cl   Isotropic =   840.4729   Anisotropy =   551.5971

     40  Cl   Isotropic =   840.4324   Anisotropy =   551.5575

     41  O    Isotropic =   190.6719   Anisotropy =   121.9102

     42  C    Isotropic =    77.3588   Anisotropy =    51.3680

     43  O    Isotropic =   191.8104   Anisotropy =   140.6157

     44  O    Isotropic =   191.8096   Anisotropy =   140.6222

     45  C    Isotropic =    77.3569   Anisotropy =    51.3787

     46  O    Isotropic =   190.6685   Anisotropy =   121.9063

     47  H    Isotropic =    25.1403   Anisotropy =     3.9334

     48  H    Isotropic =    25.0146   Anisotropy =    12.7810

     49  H    Isotropic =    25.0148   Anisotropy =    12.7820

     50  H    Isotropic =    25.1406   Anisotropy =     3.9338

     51  H    Isotropic =    24.0154   Anisotropy =    14.1972

     52  H    Isotropic =    24.0057   Anisotropy =     6.8653

     53  H    Isotropic =    23.7544   Anisotropy =     3.6649

     54  H    Isotropic =    23.5931   Anisotropy =     7.1687

     55  H    Isotropic =    22.3034   Anisotropy =    13.1256

     56  H    Isotropic =    23.7341   Anisotropy =    10.6459

     57  H    Isotropic =    23.9713   Anisotropy =     5.5774

     58  H    Isotropic =    23.7430   Anisotropy =     3.1163

     59  H    Isotropic =    23.8166   Anisotropy =     6.3564

     60  H    Isotropic =    22.1475   Anisotropy =    11.0444

     61  H    Isotropic =    23.7331   Anisotropy =    10.6468

     62  H    Isotropic =    23.9715   Anisotropy =     5.5793

     63  H    Isotropic =    23.7430   Anisotropy =     3.1174

     64  H    Isotropic =    23.8165   Anisotropy =     6.3562

     65  H    Isotropic =    22.1462   Anisotropy =    11.0482

     66  H    Isotropic =    24.0168   Anisotropy =    14.1970

     67  H    Isotropic =    24.0059   Anisotropy =     6.8655

     68  H    Isotropic =    23.7544   Anisotropy =     3.6648

     69  H    Isotropic =    23.5931   Anisotropy =     7.1686

     70  H    Isotropic =    22.3027   Anisotropy =    13.1257

     71  H    Isotropic =    25.4794   Anisotropy =     5.6020

     72  H    Isotropic =    25.4758   Anisotropy =     8.4288

     73  H    Isotropic =    25.4762   Anisotropy =     8.4310

     74  H    Isotropic =    25.4794   Anisotropy =     5.5985

     75  Pd   Isotropic =  -164.6237   Anisotropy =   277.7969

 1\1\GINC-NC042\SP\RPBE1PBE\Gen\C38H28Cl2O4P2Pd1\MACKK4\06-Dec-2021\0\\
 # PBE1PBE gen pseudo=read int=(grid=ultrafine) empiricaldispersion=GD3
 BJ nmr=giao\\R_SegPhos_1 title\\0,1\P,0,-1.6334239353,-0.7606295203,-0
 .0114528897\P,0,1.7313230934,-0.4584692769,0.0434736293\C,0,-1.3958799
 86,0.6789660614,1.1142779824\C,0,1.2345765496,0.9753551399,-1.00222007
 38\C,0,-0.5139213864,1.7431780267,0.7391693475\C,0,-0.3340277586,2.744
 3501271,1.6874528168\C,0,-0.9312562925,2.7173806154,2.9544522952\C,0,-
 1.7760159701,1.6875246522,3.3355300321\C,0,-1.9993768858,0.6698907732,

 Normal termination of Gaussian 09 at Mon Dec  6 09:42:59 2021.
 Gaussian 09:  ES64L-G09RevE.01 30-Nov-2015

 ----------------------------------------------------------------------
 # PBE1PBE gen pseudo=read int=(grid=ultrafine) empiricaldispersion=GD3
 BJ pop=nbo guess=read geom=check
 ----------------------------------------------------------------------

 -----------------
 R_SegPhos_1 title
 -----------------
 Structure from the checkpoint file:  "R_SegPhos_1_SPE.chk"
 Charge =  0 Multiplicity = 1

                         Standard orientation:
 ---------------------------------------------------------------------
 Center     Atomic      Atomic             Coordinates (Angstroms)
 Number     Number       Type             X           Y           Z
 ---------------------------------------------------------------------
      1         15           0        1.689567   -0.607728    0.028596
      2         15           0       -1.688682   -0.609717   -0.028596
      3          6           0        1.323449    0.835205   -1.057698
      4          6           0       -1.324407    0.833546    1.057857
      5          6           0        0.348559    1.804452   -0.656133
      6          6           0        0.079415    2.811212   -1.576972
      7          6           0        0.677454    2.873585   -2.842340
      8          6           0        1.612192    1.935341   -3.249040
      9          6           0        1.926113    0.916058   -2.326123
     10          6           0       -1.927378    0.913672    2.326173
     11          6           0       -1.614995    1.933467    3.249048
     12          6           0       -0.681490    2.872961    2.842400
     13          6           0       -0.083089    2.811240    1.577167
     14          6           0       -0.350689    1.804008    0.656394
     15          6           0        3.240499   -1.274163   -0.694997
     16          6           0        2.135141    0.111669    1.651476
     17          6           0       -3.238765   -1.278114    0.694944
     18          6           0       -2.135109    0.109423   -1.651356
     19          6           0       -4.502440   -0.808795    0.296863
     20          6           0       -5.657460   -1.286148    0.932357
     21          6           0       -5.555833   -2.222482    1.969743
     22          6           0       -4.295166   -2.694280    2.366132
     23          6           0       -3.139133   -2.233862    1.726113
     24          6           0       -2.825806    1.333139   -1.755277
     25          6           0       -3.154801    1.841038   -3.018785
     26          6           0       -2.780672    1.143014   -4.177635
     27          6           0       -2.090306   -0.073602   -4.072825
     28          6           0       -1.771788   -0.597146   -2.813001
     29          6           0        2.823754    1.336535    1.755661
     30          6           0        3.152356    1.844452    3.019263
     31          6           0        2.779821    1.145316    4.177957
     32          6           0        2.091463   -0.072413    4.072887
     33          6           0        1.773393   -0.595977    2.812956
     34          6           0        4.503592   -0.803199   -0.296992
     35          6           0        5.659201   -1.279087   -0.932516
     36          6           0        5.558742   -2.215620   -1.969835
     37          6           0        4.298673   -2.689087   -2.366124
     38          6           0        3.142072   -2.230131   -1.726077
     39         17           0        1.581539   -3.789175    0.707256
     40         17           0       -1.577000   -3.790841   -0.707764
     41          8           0        0.794563    3.860610    1.424037
     42          6           0        0.802481    4.547613    2.689170
     43          8           0       -0.211086    3.964607    3.530888
     44          8           0        0.205257    3.964371   -3.530951
     45          6           0       -0.808648    4.546365   -2.688933
     46          8           0       -0.799789    3.859274   -1.423858
     47          1           0        2.084081    1.982170   -4.233001
     48          1           0        2.664619    0.164691   -2.614095
     49          1           0       -2.664949    0.161351    2.614058
     50          1           0       -2.087171    1.979795    4.232895
     51          1           0       -4.589866   -0.085203   -0.518764
     52          1           0       -6.639938   -0.927135    0.608674
     53          1           0       -6.459978   -2.594996    2.462157
     54          1           0       -4.210610   -3.441325    3.161644
     55          1           0       -2.157045   -2.630992    2.001942
     56          1           0       -3.079517    1.897505   -0.851921
     57          1           0       -3.705300    2.785030   -3.098047
     58          1           0       -3.029616    1.548029   -5.163969
     59          1           0       -1.799868   -0.619953   -4.975783
     60          1           0       -1.249678   -1.555252   -2.710557
     61          1           0        3.076192    1.901702    0.852447
     62          1           0        3.701304    2.789330    3.098727
     63          1           0        3.028441    1.550339    5.164369
     64          1           0        1.802278   -0.619635    4.975720
     65          1           0        1.252895   -1.554938    2.710298
     66          1           0        4.590132   -0.079462    0.518597
     67          1           0        6.641227   -0.918781   -0.608899
     68          1           0        6.463348   -2.586998   -2.462261
     69          1           0        4.215049   -3.436299   -3.161578
     70          1           0        2.160489   -2.628555   -2.001829
     71          1           0        1.791198    4.417207    3.168841
     72          1           0        0.571505    5.615090    2.526074
     73          1           0       -0.578623    5.614052   -2.525805
     74          1           0       -1.797357    4.415088   -3.168371
     75         46           0        0.001356   -2.150131   -0.000115
 ---------------------------------------------------------------------

 SCF Done:  E(RPBE1PBE) =  -3495.10331978     A.U. after    2 cycles

 The electronic state is 1-A.
 Alpha  occ. eigenvalues -- -101.60682-101.60682 -77.26432 -77.26432 -19.27593
 Alpha  occ. eigenvalues --  -19.27593 -19.27544 -19.27543 -10.36216 -10.36216
 Alpha  occ. eigenvalues --  -10.31221 -10.31221 -10.31113 -10.31113 -10.27384
 Alpha  occ. eigenvalues --  -10.27353 -10.26509 -10.26509 -10.25888 -10.25888
 Alpha  occ. eigenvalues --  -10.25422 -10.25422 -10.25286 -10.25286 -10.25232
 Alpha  occ. eigenvalues --  -10.25232 -10.25230 -10.25230 -10.25050 -10.25049
 Alpha  occ. eigenvalues --  -10.24944 -10.24944 -10.24674 -10.24673 -10.24508
 Alpha  occ. eigenvalues --  -10.24508 -10.24222 -10.24222 -10.23931 -10.23931
 Alpha  occ. eigenvalues --  -10.23912 -10.23912 -10.23772 -10.23772 -10.23553
 Alpha  occ. eigenvalues --  -10.23552  -9.43190  -9.43189  -7.16377  -7.16377
 Alpha  occ. eigenvalues --   -7.15924  -7.15923  -7.15866  -7.15865  -6.65628
 Alpha  occ. eigenvalues --   -6.65627  -4.79221  -4.79221  -4.79192  -4.79191
 Alpha  occ. eigenvalues --   -4.78977  -4.78977  -3.51767  -2.19474  -2.19335
 Alpha  occ. eigenvalues --   -2.16114  -1.17427  -1.17336  -1.08567  -1.08394
 Alpha  occ. eigenvalues --   -0.92163  -0.89990  -0.89590  -0.89569  -0.88581
 Alpha  occ. eigenvalues --   -0.88528  -0.83084  -0.81603  -0.81596  -0.79256
 Alpha  occ. eigenvalues --   -0.79253  -0.78381  -0.78380  -0.77731  -0.77669
 Alpha  occ. eigenvalues --   -0.77350  -0.77315  -0.77298  -0.73491  -0.72815
 Alpha  occ. eigenvalues --   -0.72307  -0.71865  -0.69216  -0.68476  -0.68013
 Alpha  occ. eigenvalues --   -0.65399  -0.65059  -0.63959  -0.63898  -0.63762
 Alpha  occ. eigenvalues --   -0.63107  -0.62913  -0.62464  -0.62449  -0.59742
 Alpha  occ. eigenvalues --   -0.59450  -0.56888  -0.56044  -0.55702  -0.55276
 Alpha  occ. eigenvalues --   -0.54971  -0.54507  -0.54395  -0.53549  -0.53292
 Alpha  occ. eigenvalues --   -0.52697  -0.51332  -0.51124  -0.48521  -0.48412
 Alpha  occ. eigenvalues --   -0.48244  -0.48041  -0.48022  -0.47360  -0.47249
 Alpha  occ. eigenvalues --   -0.46949  -0.46882  -0.46727  -0.46697  -0.45310
 Alpha  occ. eigenvalues --   -0.45084  -0.44949  -0.44730  -0.43945  -0.43923
 Alpha  occ. eigenvalues --   -0.43553  -0.43221  -0.42838  -0.42837  -0.42330
 Alpha  occ. eigenvalues --   -0.41931  -0.41624  -0.41386  -0.41126  -0.40777
 Alpha  occ. eigenvalues --   -0.40634  -0.39503  -0.39383  -0.39115  -0.38828
 Alpha  occ. eigenvalues --   -0.38669  -0.38004  -0.37499  -0.37279  -0.37048
 Alpha  occ. eigenvalues --   -0.36931  -0.36831  -0.36100  -0.36007  -0.35298
 Alpha  occ. eigenvalues --   -0.35229  -0.34782  -0.34635  -0.32911  -0.31563
 Alpha  occ. eigenvalues --   -0.31364  -0.30037  -0.29564  -0.29249  -0.28581
 Alpha  occ. eigenvalues --   -0.28325  -0.28209  -0.27511  -0.27368  -0.27247
 Alpha  occ. eigenvalues --   -0.27124  -0.26411  -0.26224  -0.25999  -0.24813
 Alpha  occ. eigenvalues --   -0.23993  -0.23893  -0.23276  -0.22761  -0.22368
 Alpha virt. eigenvalues --   -0.08049  -0.04743  -0.04641  -0.04401  -0.03430
 Alpha virt. eigenvalues --   -0.03072  -0.02825  -0.02140  -0.02140  -0.01897
 Alpha virt. eigenvalues --   -0.01520  -0.00826  -0.00660   0.00991   0.01532

 Mulliken charges:
               1
     1  P    0.239641
     2  P    0.239642
     3  C    0.000670
     4  C    0.000512
     5  C   -0.003223
     6  C    0.212784
     7  C    0.104047
     8  C   -0.284715
     9  C   -0.122451
    10  C   -0.122386
    11  C   -0.284707
    12  C    0.104083
    13  C    0.212753
    14  C   -0.003247
    15  C    0.025861
    16  C    0.093755
    17  C    0.025781
    18  C    0.093871
    19  C   -0.142292
    20  C   -0.157414
    21  C   -0.095011
    22  C   -0.119084
    23  C   -0.139679
    24  C   -0.169814
    25  C   -0.163559
    26  C   -0.103188
    27  C   -0.116684
    28  C   -0.185871
    29  C   -0.169589
    30  C   -0.163574
    31  C   -0.103170
    32  C   -0.116720
    33  C   -0.185844
    34  C   -0.142317
    35  C   -0.157374
    36  C   -0.095014
    37  C   -0.119109
    38  C   -0.139727
    39  Cl  -0.397006
    40  Cl  -0.396963
    41  O   -0.271188
    42  C    0.127971
    43  O   -0.245123
    44  O   -0.245133
    45  C    0.127978
    46  O   -0.271195
    47  H    0.126940
    48  H    0.156491
    49  H    0.156483
    50  H    0.126940
    51  H    0.145109
    52  H    0.119657
    53  H    0.122113
    54  H    0.126595
    55  H    0.186934
    56  H    0.158136
    57  H    0.127658
    58  H    0.121962
    59  H    0.127258
    60  H    0.189313
    61  H    0.158088
    62  H    0.127651
    63  H    0.121968
    64  H    0.127268
    65  H    0.189240
    66  H    0.145088
    67  H    0.119658
    68  H    0.122113
    69  H    0.126597
    70  H    0.186950
    71  H    0.092897
    72  H    0.124414
    73  H    0.124386
    74  H    0.092929
    75  Pd  -0.027814
 Sum of Mulliken charges =  -0.00000

 Dipole moment (field-independent basis, Debye):
    X=             -0.0074    Y=             12.7688    Z=              0.0009  Tot=             12.7688
 Quadrupole moment (field-independent basis, Debye-Ang):
   XX=           -282.8668   YY=           -329.2015   ZZ=           -278.4413
   XY=              0.0245   XZ=             -3.7143   YZ=             -0.0088

 Summary of Natural Population Analysis:

                                       Natural Population
                Natural  -----------------------------------------------
    Atom  No    Charge         Core      Valence    Rydberg      Total
 -----------------------------------------------------------------------
      P    1    1.20726      9.99554     3.74235    0.05485    13.79274
      P    2    1.20728      9.99554     3.74233    0.05485    13.79272
      C    3   -0.34587      1.99897     4.31397    0.03293     6.34587
      C    4   -0.34587      1.99897     4.31397    0.03293     6.34587
      C    5   -0.08786      1.99886     4.06270    0.02631     6.08786
      C    6    0.25395      1.99854     3.72356    0.02395     5.74605
      C    7    0.24051      1.99864     3.73790    0.02295     5.75949
      C    8   -0.25009      1.99907     4.23406    0.01696     6.25009
      C    9   -0.19593      1.99914     4.17818    0.01861     6.19593
      C   10   -0.19593      1.99914     4.17818    0.01861     6.19593
      C   11   -0.25009      1.99907     4.23406    0.01696     6.25009
      C   12    0.24050      1.99864     3.73791    0.02295     5.75950
      C   13    0.25394      1.99854     3.72357    0.02395     5.74606
      C   14   -0.08785      1.99886     4.06269    0.02631     6.08785
      C   15   -0.34787      1.99901     4.31197    0.03689     6.34787
      C   16   -0.37092      1.99902     4.33477    0.03713     6.37092
      C   17   -0.34786      1.99901     4.31196    0.03689     6.34786
      C   18   -0.37092      1.99902     4.33477    0.03713     6.37092
      C   19   -0.20060      1.99910     4.18191    0.01959     6.20060
      C   20   -0.21196      1.99921     4.19512    0.01764     6.21196
      C   21   -0.19681      1.99922     4.17965    0.01794     6.19681
      C   22   -0.21118      1.99921     4.19362    0.01836     6.21118
      C   23   -0.17418      1.99910     4.15605    0.01904     6.17418
      C   24   -0.20738      1.99909     4.18681    0.02147     6.20738
      C   25   -0.22909      1.99921     4.21028    0.01960     6.22909
      C   26   -0.19741      1.99922     4.18024    0.01795     6.19741
      C   27   -0.20665      1.99921     4.18967    0.01777     6.20665
      C   28   -0.17193      1.99911     4.15355    0.01927     6.17193
      C   29   -0.20737      1.99909     4.18681    0.02147     6.20737
      C   30   -0.22909      1.99921     4.21028    0.01960     6.22909
      C   31   -0.19740      1.99922     4.18023    0.01795     6.19740
      C   32   -0.20665      1.99921     4.18967    0.01777     6.20665
      C   33   -0.17195      1.99911     4.15357    0.01927     6.17195
      C   34   -0.20059      1.99910     4.18190    0.01959     6.20059
      C   35   -0.21197      1.99921     4.19513    0.01764     6.21197
      C   36   -0.19680      1.99922     4.17964    0.01794     6.19680
      C   37   -0.21119      1.99921     4.19363    0.01836     6.21119
      C   38   -0.17417      1.99910     4.15603    0.01904     6.17417
     Cl   39   -0.42273      9.99965     7.41447    0.00860    17.42273
     Cl   40   -0.42272      9.99965     7.41446    0.00860    17.42272
      O   41   -0.44462      1.99977     6.42300    0.02185     8.44462
      C   42    0.20607      1.99939     3.77473    0.01980     5.79393
      O   43   -0.43721      1.99977     6.41547    0.02198     8.43721
      O   44   -0.43721      1.99977     6.41547    0.02198     8.43721
      C   45    0.20608      1.99939     3.77473    0.01980     5.79392
      O   46   -0.44461      1.99977     6.42299    0.02185     8.44461
      H   47    0.23905      0.00000     0.75973    0.00122     0.76095
      H   48    0.24347      0.00000     0.75480    0.00173     0.75653
      H   49    0.24347      0.00000     0.75480    0.00173     0.75653
      H   50    0.23905      0.00000     0.75973    0.00122     0.76095
      H   51    0.22716      0.00000     0.77115    0.00169     0.77284
      H   52    0.22039      0.00000     0.77836    0.00125     0.77961
      H   53    0.22030      0.00000     0.77854    0.00116     0.77970
      H   54    0.22520      0.00000     0.77356    0.00123     0.77480
      H   55    0.24558      0.00000     0.75311    0.00131     0.75442
      H   56    0.23317      0.00000     0.76487    0.00196     0.76683
      H   57    0.21827      0.00000     0.78027    0.00145     0.78173
      H   58    0.22133      0.00000     0.77751    0.00116     0.77867
      H   59    0.22584      0.00000     0.77300    0.00116     0.77416
      H   60    0.25625      0.00000     0.74239    0.00136     0.74375
      H   61    0.23317      0.00000     0.76487    0.00196     0.76683
      H   62    0.21827      0.00000     0.78028    0.00145     0.78173
      H   63    0.22133      0.00000     0.77752    0.00116     0.77867
      H   64    0.22584      0.00000     0.77300    0.00116     0.77416
      H   65    0.25627      0.00000     0.74237    0.00136     0.74373
      H   66    0.22716      0.00000     0.77115    0.00169     0.77284
      H   67    0.22039      0.00000     0.77836    0.00125     0.77961
      H   68    0.22030      0.00000     0.77854    0.00116     0.77970
      H   69    0.22520      0.00000     0.77356    0.00123     0.77480
      H   70    0.24558      0.00000     0.75310    0.00131     0.75442
      H   71    0.16216      0.00000     0.83592    0.00193     0.83784
      H   72    0.16988      0.00000     0.82861    0.00151     0.83012
      H   73    0.16985      0.00000     0.82863    0.00151     0.83015
      H   74    0.16219      0.00000     0.83589    0.00193     0.83781
     Pd   75   -0.21121     35.98830    10.19596    0.02695    46.21121
 =======================================================================
   * Total *   -0.00000    159.94236   236.92757    1.13007   398.00000

 1\1\GINC-NC042\SP\RPBE1PBE\Gen\C38H28Cl2O4P2Pd1\MACKK4\06-Dec-2021\0\\
 # PBE1PBE gen pseudo=read int=(grid=ultrafine) empiricaldispersion=GD3
 BJ pop=nbo guess=read geom=check\\R_SegPhos_1 title\\0,1\P,0,-1.633423
 9353,-0.7606295203,-0.0114528897\P,0,1.7313230934,-0.4584692769,0.0434
 736293\C,0,-1.395879986,0.6789660614,1.1142779824\C,0,1.2345765496,0.9
 753551399,-1.0022200738\C,0,-0.5139213864,1.7431780267,0.7391693475\C,
 0,-0.3340277586,2.7443501271,1.6874528168\C,0,-0.9312562925,2.71738061
 54,2.9544522952\C,0,-1.7760159701,1.6875246522,3.3355300321\C,0,-1.999

 Normal termination of Gaussian 09 at Mon Dec  6 09:55:07 2021.
