 Gaussian 09, Revision E.01,

 ----------------------------------------------------------------------
 # PBE1PBE/def2TZVP int=(grid=ultrafine) empiricaldispersion=GD3BJ nmr=
 giao
 ----------------------------------------------------------------------

 ---------------
 RR_DIOP_2 title
 ---------------
 Symbolic Z-matrix:
 Charge =  0 Multiplicity = 1

 SCF Done:  E(RPBE1PBE) =  -2032.44287239     A.U. after   14 cycles

      1  P    Isotropic =   315.8935   Anisotropy =    85.3546

      2  P    Isotropic =   334.4100   Anisotropy =    29.9373

      3  O    Isotropic =   183.7703   Anisotropy =   107.7204

      4  O    Isotropic =   188.9870   Anisotropy =   118.6985

      5  C    Isotropic =   149.1938   Anisotropy =    43.8954

      6  C    Isotropic =   104.5671   Anisotropy =    55.8026

      7  C    Isotropic =   102.6729   Anisotropy =    51.9496

      8  C    Isotropic =   154.6222   Anisotropy =    34.4733

      9  C    Isotropic =    70.7895   Anisotropy =    42.1302

     10  C    Isotropic =   158.7625   Anisotropy =    42.7653

     11  C    Isotropic =   159.9722   Anisotropy =    37.4297

     12  C    Isotropic =    33.0081   Anisotropy =   206.3878

     13  C    Isotropic =    50.7998   Anisotropy =   182.9592

     14  C    Isotropic =    52.0604   Anisotropy =   184.4208

     15  C    Isotropic =    54.7016   Anisotropy =   181.6337

     16  C    Isotropic =    51.7698   Anisotropy =   183.7494

     17  C    Isotropic =    48.5676   Anisotropy =   187.2534

     18  C    Isotropic =    41.4639   Anisotropy =   210.6438

     19  C    Isotropic =    39.3166   Anisotropy =   189.9397

     20  C    Isotropic =    50.7012   Anisotropy =   190.2154

     21  C    Isotropic =    49.9769   Anisotropy =   190.8053

     22  C    Isotropic =    50.7159   Anisotropy =   188.0993

     23  C    Isotropic =    46.5576   Anisotropy =   201.6129

     24  C    Isotropic =    40.6076   Anisotropy =   204.1834

     25  C    Isotropic =    40.5785   Anisotropy =   205.0321

     26  C    Isotropic =    51.3198   Anisotropy =   186.2703

     27  C    Isotropic =    50.0382   Anisotropy =   189.6997

     28  C    Isotropic =    52.3458   Anisotropy =   184.1435

     29  C    Isotropic =    42.8964   Anisotropy =   179.8663

     30  C    Isotropic =    37.5611   Anisotropy =   203.2183

     31  C    Isotropic =    43.0620   Anisotropy =   178.4295

     32  C    Isotropic =    52.8989   Anisotropy =   183.2980

     33  C    Isotropic =    50.4739   Anisotropy =   189.1021

     34  C    Isotropic =    51.3297   Anisotropy =   185.2747

     35  C    Isotropic =    44.6900   Anisotropy =   196.3651

     36  H    Isotropic =    28.7423   Anisotropy =     3.2583

     37  H    Isotropic =    29.2625   Anisotropy =     8.7000

     38  H    Isotropic =    26.7772   Anisotropy =     6.4491

     39  H    Isotropic =    28.0249   Anisotropy =     8.3988

     40  H    Isotropic =    29.1482   Anisotropy =     6.2555

     41  H    Isotropic =    31.2022   Anisotropy =    15.2801

     42  H    Isotropic =    30.4041   Anisotropy =     7.2865

     43  H    Isotropic =    30.3931   Anisotropy =     9.5832

     44  H    Isotropic =    30.4740   Anisotropy =     9.2792

     45  H    Isotropic =    30.9425   Anisotropy =     9.2913

     46  H    Isotropic =    32.1392   Anisotropy =    11.5861

     47  H    Isotropic =    31.0532   Anisotropy =     5.5979

     48  H    Isotropic =    23.6345   Anisotropy =    11.1414

     49  H    Isotropic =    23.8232   Anisotropy =     5.8834

     50  H    Isotropic =    24.0977   Anisotropy =     3.9784

     51  H    Isotropic =    24.1663   Anisotropy =     7.0547

     52  H    Isotropic =    24.6898   Anisotropy =    15.2579

     53  H    Isotropic =    23.0149   Anisotropy =     7.1481

     54  H    Isotropic =    24.1581   Anisotropy =     6.4929

     55  H    Isotropic =    23.8850   Anisotropy =     4.2208

     56  H    Isotropic =    23.7211   Anisotropy =     5.2529

     57  H    Isotropic =    23.3941   Anisotropy =     9.5572

     58  H    Isotropic =    22.7337   Anisotropy =    10.2417

     59  H    Isotropic =    23.8212   Anisotropy =     5.7959

     60  H    Isotropic =    23.8064   Anisotropy =     3.7818

     61  H    Isotropic =    23.7777   Anisotropy =     5.1250

     62  H    Isotropic =    23.1649   Anisotropy =     8.4067

     63  H    Isotropic =    23.0066   Anisotropy =     8.5615

     64  H    Isotropic =    23.7437   Anisotropy =     6.0630

     65  H    Isotropic =    23.8012   Anisotropy =     4.1310

     66  H    Isotropic =    23.8878   Anisotropy =     6.3215

     67  H    Isotropic =    23.0442   Anisotropy =    11.7890

 Normal termination of Gaussian 09 at Sun Dec  5 01:07:53 2021.
 Gaussian 09:  ES64L-G09RevE.01 30-Nov-2015

 ----------------------------------------------------------------------
 # PBE1PBE/def2TZVP int=(grid=ultrafine) empiricaldispersion=GD3BJ pop=
 nbo guess=read geom=check
 ----------------------------------------------------------------------

 ---------------
 RR_DIOP_2 title
 ---------------
 Structure from the checkpoint file:  "RR_DIOP_2_SPE_NoPd.chk"
 Charge =  0 Multiplicity = 1

                         Standard orientation:
 ---------------------------------------------------------------------
 Center     Atomic      Atomic             Coordinates (Angstroms)
 Number     Number       Type             X           Y           Z
 ---------------------------------------------------------------------
      1         15           0       -2.012983   -0.239110   -0.611315
      2         15           0        1.315295    0.703240   -0.761281
      3          8           0        0.231909   -3.254611    1.007053
      4          8           0        1.820042   -1.777961    1.813804
      5          6           0       -1.519098   -1.820326    0.236358
      6          6           0       -0.020713   -1.965124    0.444062
      7          6           0        0.639776   -1.041394    1.479451
      8          6           0        1.031618    0.379165    1.056583
      9          6           0        1.529064   -3.185687    1.634806
     10          6           0        1.422941   -3.876162    2.992502
     11          6           0        2.600183   -3.783176    0.724820
     12          6           0       -3.744322   -0.628602   -1.076069
     13          6           0       -3.987031   -1.696833   -1.963718
     14          6           0       -5.299937   -2.047374   -2.292851
     15          6           0       -6.378470   -1.325213   -1.759237
     16          6           0       -6.139227   -0.249461   -0.895321
     17          6           0       -4.825586    0.101474   -0.552279
     18          6           0       -2.175335    1.031465    0.706335
     19          6           0       -1.886995    2.366668    0.360402
     20          6           0       -1.949828    3.378807    1.326308
     21          6           0       -2.308439    3.065973    2.645510
     22          6           0       -2.619048    1.742245    2.992525
     23          6           0       -2.558423    0.727333    2.027776
     24          6           0        2.772738   -0.356907   -1.154315
     25          6           0        3.848038   -0.484942   -0.250938
     26          6           0        4.946279   -1.293288   -0.567302
     27          6           0        4.971374   -2.008285   -1.773109
     28          6           0        3.890461   -1.912532   -2.659868
     29          6           0        2.798013   -1.087748   -2.358056
     30          6           0        1.849126    2.466906   -0.664398
     31          6           0        1.109177    3.449763   -1.348911
     32          6           0        1.432915    4.805192   -1.205085
     33          6           0        2.503831    5.192337   -0.388103
     34          6           0        3.254459    4.217547    0.284431
     35          6           0        2.927245    2.862222    0.151378
     36          1           0       -2.059856   -1.934928    1.191988
     37          1           0       -1.866000   -2.632349   -0.425456
     38          1           0        0.496140   -1.859216   -0.534067
     39          1           0       -0.030472   -0.971987    2.366458
     40          1           0        1.937950    0.664413    1.617195
     41          1           0        0.248441    1.091939    1.357205
     42          1           0        0.672205   -3.363721    3.615150
     43          1           0        1.116683   -4.927187    2.863585
     44          1           0        2.395917   -3.850976    3.509087
     45          1           0        2.429535   -4.864958    0.599995
     46          1           0        2.576856   -3.296923   -0.263109
     47          1           0        3.600725   -3.627280    1.159481
     48          1           0       -3.150088   -2.231277   -2.422789
     49          1           0       -5.480291   -2.875412   -2.985482
     50          1           0       -7.404838   -1.596710   -2.026326
     51          1           0       -6.975972    0.324089   -0.483693
     52          1           0       -4.646685    0.942806    0.123031
     53          1           0       -1.584207    2.594358   -0.667196
     54          1           0       -1.701119    4.407682    1.048032
     55          1           0       -2.345557    3.852875    3.405541
     56          1           0       -2.906428    1.496829    4.020011
     57          1           0       -2.811240   -0.299070    2.311412
     58          1           0        3.828691    0.015421    0.720078
     59          1           0        5.776895   -1.376573    0.141217
     60          1           0        5.827862   -2.646137   -2.014729
     61          1           0        3.895299   -2.473606   -3.599729
     62          1           0        1.970316   -0.985518   -3.065165
     63          1           0        0.305375    3.140626   -2.023475
     64          1           0        0.853514    5.557835   -1.749519
     65          1           0        2.760481    6.251408   -0.281689
     66          1           0        4.100389    4.510588    0.914751
     67          1           0        3.530483    2.117332    0.678171
 ---------------------------------------------------------------------

 SCF Done:  E(RPBE1PBE) =  -2032.44287239     A.U. after    2 cycles

 The electronic state is 1-A.
 Alpha  occ. eigenvalues --  -77.19632 -77.19349 -19.20995 -19.20793 -10.32369
 Alpha  occ. eigenvalues --  -10.27939 -10.27647 -10.24466 -10.24182 -10.24168
 Alpha  occ. eigenvalues --  -10.24081 -10.24039 -10.23973 -10.23910 -10.23851
 Alpha  occ. eigenvalues --  -10.23781 -10.23722 -10.23722 -10.23648 -10.23586
 Alpha  occ. eigenvalues --  -10.23552 -10.23527 -10.23506 -10.23390 -10.23345
 Alpha  occ. eigenvalues --  -10.23223 -10.23117 -10.23053 -10.22958 -10.22836
 Alpha  occ. eigenvalues --  -10.22727 -10.22671 -10.22661 -10.21013 -10.20542
 Alpha  occ. eigenvalues --   -6.59263  -6.58947  -4.72867  -4.72830  -4.72535
 Alpha  occ. eigenvalues --   -4.72524  -4.72386  -4.72075  -1.10736  -1.01489
 Alpha  occ. eigenvalues --   -0.88754  -0.88328  -0.87854  -0.87509  -0.83833
 Alpha  occ. eigenvalues --   -0.79316  -0.78987  -0.77598  -0.77198  -0.76934
 Alpha  occ. eigenvalues --   -0.76813  -0.76592  -0.76324  -0.75865  -0.75130
 Alpha  occ. eigenvalues --   -0.71034  -0.67992  -0.65716  -0.63830  -0.62976
 Alpha  occ. eigenvalues --   -0.62789  -0.62143  -0.62004  -0.61715  -0.61489
 Alpha  occ. eigenvalues --   -0.60360  -0.59182  -0.57120  -0.56225  -0.54184
 Alpha  occ. eigenvalues --   -0.53280  -0.52925  -0.51697  -0.51091  -0.48975
 Alpha  occ. eigenvalues --   -0.47380  -0.47297  -0.47104  -0.46776  -0.46569
 Alpha  occ. eigenvalues --   -0.46539  -0.46327  -0.45981  -0.45776  -0.45123
 Alpha  occ. eigenvalues --   -0.44828  -0.44236  -0.43905  -0.43768  -0.43270
 Alpha  occ. eigenvalues --   -0.43222  -0.42423  -0.41655  -0.41216  -0.40726
 Alpha  occ. eigenvalues --   -0.40054  -0.39885  -0.39117  -0.38683  -0.38584
 Alpha  occ. eigenvalues --   -0.38485  -0.38125  -0.37821  -0.37015  -0.36483
 Alpha  occ. eigenvalues --   -0.36327  -0.36116  -0.35514  -0.35487  -0.34968
 Alpha  occ. eigenvalues --   -0.34582  -0.34044  -0.33709  -0.33121  -0.32654
 Alpha  occ. eigenvalues --   -0.28926  -0.28262  -0.27776  -0.27322  -0.27004
 Alpha  occ. eigenvalues --   -0.26914  -0.26710  -0.26364  -0.26238  -0.25774
 Alpha  occ. eigenvalues --   -0.23768  -0.19886
 Alpha virt. eigenvalues --   -0.03552  -0.03283  -0.02555  -0.01685  -0.01531
 Alpha virt. eigenvalues --   -0.01223  -0.00909  -0.00437   0.03757   0.04336
 Alpha virt. eigenvalues --    0.04442   0.05044   0.05823   0.06337   0.06414

 Mulliken charges:
               1
     1  P    0.084062
     2  P    0.008980
     3  O   -0.293788
     4  O   -0.309343
     5  C   -0.314661
     6  C    0.042518
     7  C    0.119104
     8  C   -0.344487
     9  C    0.329981
    10  C   -0.375844
    11  C   -0.363100
    12  C    0.176255
    13  C   -0.264643
    14  C   -0.105524
    15  C   -0.127421
    16  C   -0.133757
    17  C   -0.200049
    18  C   -0.043977
    19  C   -0.071758
    20  C   -0.144611
    21  C   -0.089827
    22  C   -0.133561
    23  C   -0.147878
    24  C    0.104859
    25  C   -0.139647
    26  C   -0.173692
    27  C   -0.106749
    28  C   -0.120153
    29  C   -0.176098
    30  C    0.191683
    31  C   -0.217731
    32  C   -0.126410
    33  C   -0.113573
    34  C   -0.142766
    35  C   -0.183988
    36  H    0.121414
    37  H    0.138004
    38  H    0.099002
    39  H    0.071419
    40  H    0.129160
    41  H    0.188826
    42  H    0.122026
    43  H    0.124549
    44  H    0.118028
    45  H    0.119354
    46  H    0.148691
    47  H    0.108385
    48  H    0.125461
    49  H    0.116966
    50  H    0.115972
    51  H    0.115362
    52  H    0.148642
    53  H    0.117437
    54  H    0.118608
    55  H    0.122057
    56  H    0.121231
    57  H    0.120457
    58  H    0.117784
    59  H    0.115104
    60  H    0.118677
    61  H    0.118371
    62  H    0.127407
    63  H    0.150896
    64  H    0.120010
    65  H    0.119773
    66  H    0.118041
    67  H    0.090480
 Sum of Mulliken charges =  -0.00000

 Dipole moment (field-independent basis, Debye):
    X=              0.6094    Y=              1.1045    Z=              1.4915  Tot=              1.9534
 Quadrupole moment (field-independent basis, Debye-Ang):
   XX=           -210.0968   YY=           -205.9205   ZZ=           -215.2002
   XY=             -3.7854   XZ=              0.0207   YZ=              8.3874

 Summary of Natural Population Analysis:

                                       Natural Population
                Natural  -----------------------------------------------
    Atom  No    Charge         Core      Valence    Rydberg      Total
 -----------------------------------------------------------------------
      P    1    0.82431      9.99808     4.14761    0.03001    14.17569
      P    2    0.78614      9.99818     4.18537    0.03031    14.21386
      O    3   -0.51416      1.99978     6.49262    0.02176     8.51416
      O    4   -0.52055      1.99978     6.49934    0.02142     8.52055
      C    5   -0.70615      1.99936     4.68294    0.02385     6.70615
      C    6    0.04964      1.99920     3.92903    0.02213     5.95036
      C    7    0.06098      1.99922     3.91646    0.02334     5.93902
      C    8   -0.72329      1.99937     4.70123    0.02269     6.72329
      C    9    0.51028      1.99933     3.46784    0.02255     5.48972
      C   10   -0.64748      1.99937     4.63463    0.01348     6.64748
      C   11   -0.65583      1.99937     4.64186    0.01460     6.65583
      C   12   -0.31749      1.99905     4.28843    0.03001     6.31749
      C   13   -0.21969      1.99912     4.20076    0.01981     6.21969
      C   14   -0.20778      1.99921     4.18980    0.01876     6.20778
      C   15   -0.22414      1.99922     4.20631    0.01862     6.22414
      C   16   -0.20575      1.99921     4.18842    0.01811     6.20575
      C   17   -0.22120      1.99911     4.20239    0.01971     6.22120
      C   18   -0.34186      1.99906     4.31000    0.03280     6.34186
      C   19   -0.20826      1.99911     4.18903    0.02013     6.20826
      C   20   -0.21233      1.99920     4.19526    0.01787     6.21233
      C   21   -0.20769      1.99922     4.19033    0.01814     6.20769
      C   22   -0.21452      1.99921     4.19735    0.01796     6.21452
      C   23   -0.21612      1.99909     4.19727    0.01975     6.21612
      C   24   -0.33783      1.99904     4.30700    0.03179     6.33783
      C   25   -0.18688      1.99910     4.16844    0.01934     6.18688
      C   26   -0.21672      1.99920     4.19916    0.01836     6.21672
      C   27   -0.20751      1.99921     4.19010    0.01820     6.20751
      C   28   -0.22091      1.99921     4.20315    0.01856     6.22091
      C   29   -0.20314      1.99913     4.18490    0.01912     6.20314
      C   30   -0.32321      1.99903     4.29391    0.03028     6.32321
      C   31   -0.19896      1.99912     4.18000    0.01984     6.19896
      C   32   -0.21904      1.99921     4.20124    0.01859     6.21904
      C   33   -0.20666      1.99922     4.18921    0.01823     6.20666
      C   34   -0.21259      1.99921     4.19522    0.01816     6.21259
      C   35   -0.19853      1.99910     4.18035    0.01907     6.19853
      H   36    0.22182      0.00000     0.77534    0.00284     0.77818
      H   37    0.25547      0.00000     0.74294    0.00159     0.74453
      H   38    0.19057      0.00000     0.80685    0.00259     0.80943
      H   39    0.17519      0.00000     0.82194    0.00286     0.82481
      H   40    0.23307      0.00000     0.76432    0.00261     0.76693
      H   41    0.26121      0.00000     0.73705    0.00173     0.73879
      H   42    0.22090      0.00000     0.77804    0.00106     0.77910
      H   43    0.22106      0.00000     0.77803    0.00091     0.77894
      H   44    0.21798      0.00000     0.78114    0.00088     0.78202
      H   45    0.21702      0.00000     0.78207    0.00091     0.78298
      H   46    0.23081      0.00000     0.76773    0.00146     0.76919
      H   47    0.22135      0.00000     0.77764    0.00101     0.77865
      H   48    0.21725      0.00000     0.78110    0.00164     0.78275
      H   49    0.21721      0.00000     0.78150    0.00129     0.78279
      H   50    0.21685      0.00000     0.78196    0.00119     0.78315
      H   51    0.21621      0.00000     0.78245    0.00134     0.78379
      H   52    0.22607      0.00000     0.77201    0.00192     0.77393
      H   53    0.23084      0.00000     0.76698    0.00218     0.76916
      H   54    0.22414      0.00000     0.77454    0.00132     0.77586
      H   55    0.22043      0.00000     0.77841    0.00117     0.77957
      H   56    0.22000      0.00000     0.77869    0.00131     0.78000
      H   57    0.21856      0.00000     0.77909    0.00235     0.78144
      H   58    0.21328      0.00000     0.78449    0.00223     0.78672
      H   59    0.21734      0.00000     0.78129    0.00137     0.78266
      H   60    0.21899      0.00000     0.77983    0.00118     0.78101
      H   61    0.21982      0.00000     0.77891    0.00126     0.78018
      H   62    0.22851      0.00000     0.76995    0.00154     0.77149
      H   63    0.22614      0.00000     0.77239    0.00148     0.77386
      H   64    0.21858      0.00000     0.78014    0.00128     0.78142
      H   65    0.21849      0.00000     0.78032    0.00119     0.78151
      H   66    0.21731      0.00000     0.78131    0.00138     0.78269
      H   67    0.21249      0.00000     0.78531    0.00219     0.78751
 =======================================================================
   * Total *    0.00000     85.97065   177.23073    0.79862   264.00000

 Normal termination of Gaussian 09 at Sun Dec  5 01:13:27 2021.
