 Gaussian 09, Revision E.01,

 ----------------------------------------------------------------------
 # PBE1PBE gen pseudo=read int=(grid=ultrafine) empiricaldispersion=GD3
 BJ nmr=giao
 ----------------------------------------------------------------------

 ---------------
 RR_DIOP_1 title
 ---------------
 Symbolic Z-matrix:
 Charge =  0 Multiplicity = 1

 SCF Done:  E(RPBE1PBE) =  -3080.63718115     A.U. after   20 cycles

      1  P    Isotropic =   244.4647   Anisotropy =   122.3919

      2  P    Isotropic =   265.2184   Anisotropy =    99.7099

      3  O    Isotropic =   185.8313   Anisotropy =   105.8206

      4  O    Isotropic =   188.3246   Anisotropy =   118.9398

      5  C    Isotropic =   148.2739   Anisotropy =    41.8771

      6  C    Isotropic =   104.4554   Anisotropy =    54.2928

      7  C    Isotropic =   104.4549   Anisotropy =    53.3437

      8  C    Isotropic =   156.0056   Anisotropy =    21.8086

      9  C    Isotropic =    70.3645   Anisotropy =    41.7618

     10  C    Isotropic =   159.1420   Anisotropy =    42.8459

     11  C    Isotropic =   160.3658   Anisotropy =    38.8701

     12  C    Isotropic =    44.7580   Anisotropy =   176.6786

     13  C    Isotropic =    41.4067   Anisotropy =   200.4624

     14  C    Isotropic =    52.2338   Anisotropy =   185.6716

     15  C    Isotropic =    49.4956   Anisotropy =   190.2730

     16  C    Isotropic =    53.1748   Anisotropy =   182.4419

     17  C    Isotropic =    48.1795   Anisotropy =   189.6660

     18  C    Isotropic =    45.1064   Anisotropy =   190.6923

     19  C    Isotropic =    36.8664   Anisotropy =   195.3225

     20  C    Isotropic =    48.7341   Anisotropy =   192.1505

     21  C    Isotropic =    47.2524   Anisotropy =   194.5910

     22  C    Isotropic =    51.5334   Anisotropy =   187.4972

     23  C    Isotropic =    48.9703   Anisotropy =   194.3468

     24  C    Isotropic =    45.5553   Anisotropy =   180.8085

     25  C    Isotropic =    33.9622   Anisotropy =   201.0362

     26  C    Isotropic =    51.6258   Anisotropy =   187.2086

     27  C    Isotropic =    48.2229   Anisotropy =   193.9103

     28  C    Isotropic =    52.9718   Anisotropy =   185.5249

     29  C    Isotropic =    43.1751   Anisotropy =   201.0335

     30  C    Isotropic =    41.0914   Anisotropy =   178.6930

     31  C    Isotropic =    40.9427   Anisotropy =   201.1891

     32  C    Isotropic =    52.0890   Anisotropy =   184.9942

     33  C    Isotropic =    49.6243   Anisotropy =   189.7672

     34  C    Isotropic =    54.0252   Anisotropy =   181.7997

     35  C    Isotropic =    50.3336   Anisotropy =   187.9778

     36  H    Isotropic =    28.7652   Anisotropy =     5.7584

     37  H    Isotropic =    28.8055   Anisotropy =     7.4059

     38  H    Isotropic =    26.4151   Anisotropy =     9.1343

     39  H    Isotropic =    27.7898   Anisotropy =     7.3016

     40  H    Isotropic =    29.2104   Anisotropy =     5.9414

     41  H    Isotropic =    30.0306   Anisotropy =    12.3967

     42  H    Isotropic =    30.4044   Anisotropy =     7.8004

     43  H    Isotropic =    30.3337   Anisotropy =     9.8954

     44  H    Isotropic =    30.4834   Anisotropy =     9.8916

     45  H    Isotropic =    30.8645   Anisotropy =     9.6331

     46  H    Isotropic =    31.9499   Anisotropy =    12.8179

     47  H    Isotropic =    31.0917   Anisotropy =     6.0765

     48  H    Isotropic =    23.0944   Anisotropy =    12.4034

     49  H    Isotropic =    23.6507   Anisotropy =     6.8397

     50  H    Isotropic =    23.8160   Anisotropy =     3.9069

     51  H    Isotropic =    24.0796   Anisotropy =     7.2505

     52  H    Isotropic =    24.8737   Anisotropy =    15.2244

     53  H    Isotropic =    22.0171   Anisotropy =    12.6902

     54  H    Isotropic =    23.2736   Anisotropy =     6.5965

     55  H    Isotropic =    23.3201   Anisotropy =     3.6509

     56  H    Isotropic =    23.4783   Anisotropy =     5.7497

     57  H    Isotropic =    23.3309   Anisotropy =    10.5887

     58  H    Isotropic =    21.6617   Anisotropy =    13.2357

     59  H    Isotropic =    23.5165   Anisotropy =     6.5335

     60  H    Isotropic =    23.6957   Anisotropy =     3.1198

     61  H    Isotropic =    23.9161   Anisotropy =     5.5520

     62  H    Isotropic =    23.8005   Anisotropy =    11.5605

     63  H    Isotropic =    23.7256   Anisotropy =    12.7668

     64  H    Isotropic =    23.9408   Anisotropy =     6.9863

     65  H    Isotropic =    23.8307   Anisotropy =     4.1844

     66  H    Isotropic =    23.9535   Anisotropy =     7.6827

     67  H    Isotropic =    24.3561   Anisotropy =    10.0047

     68  Cl   Isotropic =   869.7656   Anisotropy =   503.7318

     69  Cl   Isotropic =   825.3020   Anisotropy =   293.0036

     70  Pd   Isotropic =  -139.5180   Anisotropy =   240.7323

 1\1\GINC-NC104\SP\RPBE1PBE\Gen\C31H32Cl2O2P2Pd1\MACKK4\05-Dec-2021\0\\
 # PBE1PBE gen pseudo=read int=(grid=ultrafine) empiricaldispersion=GD3
 BJ nmr=giao\\RR_DIOP_1 title\\0,1\P,0,1.277607461,4.5976950179,-0.0696
 800528\P,0,-0.4051189839,3.04840943,-2.6694861955\O,0,-0.6252084572,1.
 2859336409,1.4208728377\O,0,-0.4097436152,0.1376346646,-0.5782424727\C
 ,0,0.7193521325,3.2399478502,1.0777838325\C,0,-0.1636982994,2.19430577
 17,0.4177328574\C,0,0.503439546,1.2368950955,-0.5805903292\C,0,0.72211
 5317,1.7068687142,-2.021244601\C,0,-0.9994643698,0.0663969667,0.741137

 Normal termination of Gaussian 09 at Sun Dec  5 01:42:17 2021.
 Gaussian 09:  ES64L-G09RevE.01 30-Nov-2015

 ----------------------------------------------------------------------
 # PBE1PBE gen pseudo=read int=(grid=ultrafine) empiricaldispersion=GD3
 BJ pop=nbo guess=read geom=check
 ----------------------------------------------------------------------

 ---------------
 RR_DIOP_1 title
 ---------------
 Structure from the checkpoint file:  "RR_DIOP_1_SPE.chk"
 Charge =  0 Multiplicity = 1

                         Standard orientation:
 ---------------------------------------------------------------------
 Center     Atomic      Atomic             Coordinates (Angstroms)
 Number     Number       Type             X           Y           Z
 ---------------------------------------------------------------------
      1         15           0        1.927291    0.313131    0.037893
      2         15           0       -1.433292   -0.521632    0.060176
      3          8           0       -0.242770    3.727166    0.705288
      4          8           0       -1.915752    2.568786    1.810170
      5          6           0        1.473734    2.077887    0.427407
      6          6           0       -0.021886    2.325296    0.530957
      7          6           0       -0.749322    1.745124    1.752675
      8          6           0       -1.172355    0.273823    1.730436
      9          6           0       -1.550711    3.873797    1.302922
     10          6           0       -1.423227    4.871893    2.452122
     11          6           0       -2.582627    4.275519    0.252451
     12          6           0        3.668290    0.533479   -0.498876
     13          6           0        3.921730    1.255976   -1.682791
     14          6           0        5.238835    1.495187   -2.086534
     15          6           0        6.310795    1.000506   -1.327683
     16          6           0        6.060944    0.264703   -0.162815
     17          6           0        4.742732    0.029229    0.254174
     18          6           0        2.063005   -0.577085    1.640070
     19          6           0        1.866414   -1.973428    1.611440
     20          6           0        1.962262   -2.724045    2.791150
     21          6           0        2.242701   -2.086758    4.009061
     22          6           0        2.446489   -0.699117    4.042590
     23          6           0        2.367220    0.053691    2.862644
     24          6           0       -2.797613    0.455903   -0.685266
     25          6           0       -2.664977    0.982709   -1.983009
     26          6           0       -3.701152    1.747783   -2.536969
     27          6           0       -4.873427    1.982106   -1.804372
     28          6           0       -5.009782    1.453629   -0.511612
     29          6           0       -3.974984    0.696583    0.049972
     30          6           0       -2.196848   -2.112129    0.566665
     31          6           0       -3.287562   -2.634374   -0.155892
     32          6           0       -3.851802   -3.859925    0.217733
     33          6           0       -3.332054   -4.578251    1.303959
     34          6           0       -2.241299   -4.065895    2.019788
     35          6           0       -1.673392   -2.838594    1.654483
     36          1           0        1.995896    2.424806    1.336315
     37          1           0        1.874549    2.671316   -0.412402
     38          1           0       -0.514063    1.968477   -0.398379
     39          1           0       -0.114278    1.916249    2.652477
     40          1           0       -2.101144    0.170324    2.316687
     41          1           0       -0.403842   -0.329395    2.238166
     42          1           0       -0.711916    4.491601    3.202850
     43          1           0       -1.053793    5.840271    2.076834
     44          1           0       -2.402897    5.027314    2.932023
     45          1           0       -2.360113    5.284308   -0.131904
     46          1           0       -2.571830    3.558947   -0.583428
     47          1           0       -3.593013    4.275969    0.692666
     48          1           0        3.089793    1.600095   -2.304610
     49          1           0        5.428091    2.052104   -3.009539
     50          1           0        7.340650    1.181311   -1.652003
     51          1           0        6.892855   -0.131937    0.428097
     52          1           0        4.555878   -0.546959    1.164660
     53          1           0        1.620592   -2.457669    0.658393
     54          1           0        1.805955   -3.807053    2.756884
     55          1           0        2.304539   -2.670756    4.932834
     56          1           0        2.670509   -0.199396    4.990539
     57          1           0        2.543656    1.132976    2.902745
     58          1           0       -1.762621    0.760928   -2.561184
     59          1           0       -3.593124    2.149870   -3.549260
     60          1           0       -5.684230    2.574271   -2.241107
     61          1           0       -5.924311    1.632706    0.063045
     62          1           0       -4.090639    0.285941    1.057910
     63          1           0       -3.682656   -2.084947   -1.013529
     64          1           0       -4.697634   -4.259022   -0.351136
     65          1           0       -3.773469   -5.538592    1.589280
     66          1           0       -1.826780   -4.622679    2.866808
     67          1           0       -0.813422   -2.461954    2.215934
     68         17           0       -1.144530   -1.944961   -2.681926
     69         17           0        2.140218   -1.198372   -2.865525
     70         46           0        0.411381   -0.764439   -1.312522
 ---------------------------------------------------------------------

 SCF Done:  E(RPBE1PBE) =  -3080.63718114     A.U. after    3 cycles

 The electronic state is 1-A.
 Alpha  occ. eigenvalues -- -101.61629-101.61142 -77.27049 -77.26609 -19.22929
 Alpha  occ. eigenvalues --  -19.22798 -10.34029 -10.30399 -10.30020 -10.27374
 Alpha  occ. eigenvalues --  -10.26844 -10.26440 -10.26346 -10.26292 -10.26164
 Alpha  occ. eigenvalues --  -10.26115 -10.25736 -10.25699 -10.25692 -10.25624
 Alpha  occ. eigenvalues --  -10.24989 -10.24734 -10.24600 -10.24584 -10.24406
 Alpha  occ. eigenvalues --  -10.24384 -10.24372 -10.24234 -10.24174 -10.24153
 Alpha  occ. eigenvalues --  -10.24143 -10.24128 -10.24009 -10.23862 -10.23841
 Alpha  occ. eigenvalues --  -10.22407 -10.21780  -9.44142  -9.43649  -7.17343
 Alpha  occ. eigenvalues --   -7.16858  -7.16851  -7.16826  -7.16384  -7.16302
 Alpha  occ. eigenvalues --   -6.66273  -6.65790  -4.79881  -4.79832  -4.79597
 Alpha  occ. eigenvalues --   -4.79387  -4.79352  -4.79137  -3.52252  -2.19977
 Alpha  occ. eigenvalues --   -2.19822  -2.16551  -1.12721  -1.03493  -0.91221
 Alpha  occ. eigenvalues --   -0.89553  -0.88994  -0.88777  -0.86241  -0.82060
 Alpha  occ. eigenvalues --   -0.81148  -0.79912  -0.78965  -0.78082  -0.77998
 Alpha  occ. eigenvalues --   -0.77740  -0.77642  -0.77508  -0.77300  -0.74348
 Alpha  occ. eigenvalues --   -0.73393  -0.72417  -0.70693  -0.68454  -0.66423
 Alpha  occ. eigenvalues --   -0.65295  -0.64013  -0.63632  -0.63255  -0.63064
 Alpha  occ. eigenvalues --   -0.62637  -0.62118  -0.61132  -0.59531  -0.58355
 Alpha  occ. eigenvalues --   -0.56512  -0.55139  -0.54240  -0.53302  -0.52906
 Alpha  occ. eigenvalues --   -0.51223  -0.49853  -0.49412  -0.48795  -0.48534
 Alpha  occ. eigenvalues --   -0.48363  -0.47958  -0.47557  -0.47441  -0.47172
 Alpha  occ. eigenvalues --   -0.46947  -0.46668  -0.46257  -0.45865  -0.45048
 Alpha  occ. eigenvalues --   -0.44499  -0.44297  -0.44170  -0.43980  -0.43171
 Alpha  occ. eigenvalues --   -0.42723  -0.42064  -0.41657  -0.41167  -0.40771
 Alpha  occ. eigenvalues --   -0.40445  -0.40317  -0.39939  -0.39481  -0.39034
 Alpha  occ. eigenvalues --   -0.38673  -0.38161  -0.37765  -0.37599  -0.37261
 Alpha  occ. eigenvalues --   -0.36913  -0.36807  -0.36680  -0.36507  -0.36222
 Alpha  occ. eigenvalues --   -0.35966  -0.35655  -0.35044  -0.33592  -0.31572
 Alpha  occ. eigenvalues --   -0.31360  -0.31088  -0.30616  -0.29907  -0.29610
 Alpha  occ. eigenvalues --   -0.29146  -0.28604  -0.28066  -0.27769  -0.27577
 Alpha  occ. eigenvalues --   -0.27445  -0.26871  -0.26590  -0.25774  -0.24849
 Alpha  occ. eigenvalues --   -0.24226  -0.23777  -0.23309
 Alpha virt. eigenvalues --   -0.07445  -0.05716  -0.04622  -0.04135  -0.03454
 Alpha virt. eigenvalues --   -0.02466  -0.02179  -0.01818  -0.01447  -0.00060
 Alpha virt. eigenvalues --    0.00667   0.02645   0.03673   0.03919   0.04020

 Mulliken charges:
               1
     1  P    0.280590
     2  P    0.135875
     3  O   -0.291526
     4  O   -0.302401
     5  C   -0.363265
     6  C    0.064486
     7  C    0.105939
     8  C   -0.329933
     9  C    0.323933
    10  C   -0.373969
    11  C   -0.367537
    12  C    0.154904
    13  C   -0.243273
    14  C   -0.114183
    15  C   -0.102995
    16  C   -0.145772
    17  C   -0.180344
    18  C   -0.105656
    19  C   -0.104726
    20  C   -0.154336
    21  C   -0.078436
    22  C   -0.144090
    23  C   -0.136152
    24  C    0.014802
    25  C   -0.098429
    26  C   -0.138809
    27  C   -0.101706
    28  C   -0.131628
    29  C   -0.168619
    30  C    0.153708
    31  C   -0.131806
    32  C   -0.141366
    33  C   -0.089865
    34  C   -0.177909
    35  C   -0.186391
    36  H    0.144604
    37  H    0.169134
    38  H    0.129644
    39  H    0.069688
    40  H    0.159032
    41  H    0.177711
    42  H    0.119786
    43  H    0.130146
    44  H    0.123329
    45  H    0.122301
    46  H    0.151074
    47  H    0.114866
    48  H    0.157005
    49  H    0.125096
    50  H    0.122654
    51  H    0.120450
    52  H    0.151020
    53  H    0.223231
    54  H    0.139174
    55  H    0.131724
    56  H    0.130540
    57  H    0.119998
    58  H    0.188450
    59  H    0.127220
    60  H    0.122928
    61  H    0.121317
    62  H    0.120126
    63  H    0.159964
    64  H    0.124192
    65  H    0.122034
    66  H    0.113677
    67  H    0.154728
    68  Cl  -0.402863
    69  Cl  -0.408018
    70  Pd   0.094923
 Sum of Mulliken charges =  -0.00000

 Dipole moment (field-independent basis, Debye):
    X=             -0.8930    Y=              3.9309    Z=              9.6279  Tot=             10.4377
 Quadrupole moment (field-independent basis, Debye-Ang):
   XX=           -237.6731   YY=           -256.6637   ZZ=           -268.9381
   XY=              1.9634   XZ=             12.1195   YZ=            -27.1377

 Summary of Natural Population Analysis:

                                       Natural Population
                Natural  -----------------------------------------------
    Atom  No    Charge         Core      Valence    Rydberg      Total
 -----------------------------------------------------------------------
      P    1    1.18043      9.99583     3.77162    0.05212    13.81957
      P    2    1.17825      9.99590     3.77049    0.05537    13.82175
      O    3   -0.51090      1.99978     6.48953    0.02159     8.51090
      O    4   -0.51344      1.99978     6.49203    0.02163     8.51344
      C    5   -0.72556      1.99933     4.69898    0.02725     6.72556
      C    6    0.04941      1.99918     3.92951    0.02191     5.95059
      C    7    0.06151      1.99922     3.91620    0.02308     5.93849
      C    8   -0.75008      1.99934     4.72422    0.02653     6.75008
      C    9    0.51061      1.99933     3.46762    0.02244     5.48939
      C   10   -0.64916      1.99937     4.63632    0.01346     6.64916
      C   11   -0.65622      1.99937     4.64231    0.01455     6.65622
      C   12   -0.34674      1.99901     4.31044    0.03729     6.34674
      C   13   -0.17464      1.99911     4.15577    0.01976     6.17464
      C   14   -0.20822      1.99921     4.19034    0.01866     6.20822
      C   15   -0.19543      1.99922     4.17824    0.01798     6.19543
      C   16   -0.21175      1.99921     4.19472    0.01783     6.21175
      C   17   -0.20167      1.99910     4.18301    0.01955     6.20167
      C   18   -0.37220      1.99904     4.33701    0.03616     6.37220
      C   19   -0.19739      1.99910     4.17951    0.01878     6.19739
      C   20   -0.21308      1.99921     4.19537    0.01849     6.21308
      C   21   -0.19865      1.99922     4.18147    0.01796     6.19865
      C   22   -0.21105      1.99921     4.19399    0.01785     6.21105
      C   23   -0.21170      1.99910     4.19266    0.01994     6.21170
      C   24   -0.37383      1.99900     4.33885    0.03597     6.37383
      C   25   -0.18012      1.99910     4.16260    0.01842     6.18012
      C   26   -0.21845      1.99921     4.20088    0.01836     6.21845
      C   27   -0.19575      1.99922     4.17867    0.01787     6.19575
      C   28   -0.21776      1.99921     4.20040    0.01816     6.21776
      C   29   -0.18551      1.99909     4.16572    0.02070     6.18551
      C   30   -0.35845      1.99902     4.32266    0.03677     6.35845
      C   31   -0.17219      1.99911     4.15358    0.01951     6.17219
      C   32   -0.20738      1.99921     4.19041    0.01776     6.20738
      C   33   -0.19795      1.99922     4.18070    0.01803     6.19795
      C   34   -0.21484      1.99921     4.19783    0.01780     6.21484
      C   35   -0.20960      1.99910     4.19156    0.01894     6.20960
      H   36    0.24099      0.00000     0.75697    0.00204     0.75901
      H   37    0.26897      0.00000     0.72960    0.00143     0.73103
      H   38    0.20204      0.00000     0.79550    0.00246     0.79796
      H   39    0.17596      0.00000     0.82114    0.00290     0.82404
      H   40    0.26039      0.00000     0.73761    0.00200     0.73961
      H   41    0.25911      0.00000     0.73929    0.00160     0.74089
      H   42    0.21869      0.00000     0.78026    0.00105     0.78131
      H   43    0.22439      0.00000     0.77473    0.00088     0.77561
      H   44    0.22120      0.00000     0.77793    0.00086     0.77880
      H   45    0.22001      0.00000     0.77911    0.00088     0.77999
      H   46    0.23300      0.00000     0.76559    0.00141     0.76700
      H   47    0.22426      0.00000     0.77478    0.00096     0.77574
      H   48    0.23632      0.00000     0.76222    0.00146     0.76368
      H   49    0.22409      0.00000     0.77468    0.00123     0.77591
      H   50    0.22072      0.00000     0.77812    0.00116     0.77928
      H   51    0.22083      0.00000     0.77791    0.00125     0.77917
      H   52    0.22646      0.00000     0.77168    0.00185     0.77354
      H   53    0.25506      0.00000     0.74357    0.00137     0.74494
      H   54    0.23118      0.00000     0.76756    0.00125     0.76882
      H   55    0.22564      0.00000     0.77322    0.00114     0.77436
      H   56    0.22607      0.00000     0.77267    0.00126     0.77393
      H   57    0.22095      0.00000     0.77702    0.00203     0.77905
      H   58    0.25493      0.00000     0.74357    0.00151     0.74507
      H   59    0.22701      0.00000     0.77175    0.00124     0.77299
      H   60    0.22166      0.00000     0.77718    0.00116     0.77834
      H   61    0.22224      0.00000     0.77649    0.00127     0.77776
      H   62    0.22152      0.00000     0.77614    0.00234     0.77848
      H   63    0.24410      0.00000     0.75419    0.00171     0.75590
      H   64    0.22364      0.00000     0.77514    0.00122     0.77636
      H   65    0.22035      0.00000     0.77849    0.00116     0.77965
      H   66    0.21850      0.00000     0.78023    0.00128     0.78150
      H   67    0.22045      0.00000     0.77759    0.00195     0.77955
     Cl   68   -0.40439      9.99962     7.39558    0.00919    17.40439
     Cl   69   -0.40131      9.99964     7.39254    0.00912    17.40131
     Pd   70   -0.20552     35.98880    10.19117    0.02555    46.20552
 =======================================================================
   * Total *    0.00000    141.95392   201.13642    0.90966   344.00000

 1\1\GINC-NC104\SP\RPBE1PBE\Gen\C31H32Cl2O2P2Pd1\MACKK4\05-Dec-2021\0\\
 # PBE1PBE gen pseudo=read int=(grid=ultrafine) empiricaldispersion=GD3
 BJ pop=nbo guess=read geom=check\\RR_DIOP_1 title\\0,1\P,0,1.277607461
 ,4.5976950179,-0.0696800528\P,0,-0.4051189839,3.04840943,-2.6694861955
 \O,0,-0.6252084572,1.2859336409,1.4208728377\O,0,-0.4097436152,0.13763
 46646,-0.5782424727\C,0,0.7193521325,3.2399478502,1.0777838325\C,0,-0.
 1636982994,2.1943057717,0.4177328574\C,0,0.503439546,1.2368950955,-0.5
 805903292\C,0,0.722115317,1.7068687142,-2.021244601\C,0,-0.9994643698,

 Normal termination of Gaussian 09 at Sun Dec  5 01:51:48 2021.
