 Gaussian 09, Revision E.01,

 ----------------------------------------------------------------------
 # PBE1PBE/def2TZVP int=(grid=ultrafine) empiricaldispersion=GD3BJ nmr=
 giao
 ----------------------------------------------------------------------

 ---------------
 RR_DIOP_1 title
 ---------------
 Symbolic Z-matrix:
 Charge =  0 Multiplicity = 1

 SCF Done:  E(RPBE1PBE) =  -2032.44729214     A.U. after   14 cycles

      1  P    Isotropic =   314.8549   Anisotropy =    80.8406

      2  P    Isotropic =   312.1456   Anisotropy =    51.6072

      3  O    Isotropic =   183.6054   Anisotropy =   108.3807

      4  O    Isotropic =   189.0394   Anisotropy =   118.0900

      5  C    Isotropic =   149.5508   Anisotropy =    46.3136

      6  C    Isotropic =   104.1905   Anisotropy =    54.6723

      7  C    Isotropic =   103.2239   Anisotropy =    51.8256

      8  C    Isotropic =   155.5909   Anisotropy =    25.2453

      9  C    Isotropic =    71.0756   Anisotropy =    41.8981

     10  C    Isotropic =   159.1193   Anisotropy =    42.3868

     11  C    Isotropic =   160.1168   Anisotropy =    39.5772

     12  C    Isotropic =    33.2555   Anisotropy =   205.5666

     13  C    Isotropic =    50.2978   Anisotropy =   182.1338

     14  C    Isotropic =    51.8856   Anisotropy =   184.5222

     15  C    Isotropic =    54.2548   Anisotropy =   182.3106

     16  C    Isotropic =    51.6922   Anisotropy =   183.7003

     17  C    Isotropic =    48.2633   Anisotropy =   187.5961

     18  C    Isotropic =    40.6773   Anisotropy =   212.0492

     19  C    Isotropic =    39.5140   Anisotropy =   189.9770

     20  C    Isotropic =    49.8705   Anisotropy =   189.8171

     21  C    Isotropic =    49.6872   Anisotropy =   190.5415

     22  C    Isotropic =    50.1892   Anisotropy =   188.5168

     23  C    Isotropic =    47.0688   Anisotropy =   201.4077

     24  C    Isotropic =    39.8434   Anisotropy =   207.8886

     25  C    Isotropic =    40.9713   Anisotropy =   185.6707

     26  C    Isotropic =    52.2254   Anisotropy =   185.3940

     27  C    Isotropic =    49.5740   Anisotropy =   191.5127

     28  C    Isotropic =    50.1384   Anisotropy =   188.7559

     29  C    Isotropic =    38.6965   Anisotropy =   205.1148

     30  C    Isotropic =    31.7373   Anisotropy =   203.3071

     31  C    Isotropic =    49.4672   Anisotropy =   187.4246

     32  C    Isotropic =    52.4592   Anisotropy =   183.9934

     33  C    Isotropic =    55.1677   Anisotropy =   180.6520

     34  C    Isotropic =    52.8973   Anisotropy =   183.6423

     35  C    Isotropic =    50.7937   Anisotropy =   185.8160

     36  H    Isotropic =    28.6817   Anisotropy =     3.2749

     37  H    Isotropic =    29.3339   Anisotropy =     8.4902

     38  H    Isotropic =    26.5570   Anisotropy =     7.4708

     39  H    Isotropic =    27.8150   Anisotropy =     8.1052

     40  H    Isotropic =    29.3344   Anisotropy =     4.1107

     41  H    Isotropic =    30.3722   Anisotropy =    14.8606

     42  H    Isotropic =    30.3786   Anisotropy =     7.4226

     43  H    Isotropic =    30.4011   Anisotropy =     9.5051

     44  H    Isotropic =    30.5436   Anisotropy =     9.3970

     45  H    Isotropic =    30.9299   Anisotropy =     9.2561

     46  H    Isotropic =    32.0205   Anisotropy =    12.7642

     47  H    Isotropic =    31.1446   Anisotropy =     5.6955

     48  H    Isotropic =    23.6266   Anisotropy =    11.0398

     49  H    Isotropic =    23.8214   Anisotropy =     5.9207

     50  H    Isotropic =    24.0858   Anisotropy =     4.1028

     51  H    Isotropic =    24.1664   Anisotropy =     7.1824

     52  H    Isotropic =    24.7665   Anisotropy =    15.3761

     53  H    Isotropic =    23.1137   Anisotropy =     7.6751

     54  H    Isotropic =    23.4475   Anisotropy =     5.0495

     55  H    Isotropic =    23.4646   Anisotropy =     3.7749

     56  H    Isotropic =    23.4666   Anisotropy =     5.7626

     57  H    Isotropic =    23.1890   Anisotropy =     9.8674

     58  H    Isotropic =    23.0010   Anisotropy =     8.2367

     59  H    Isotropic =    23.6689   Anisotropy =     4.9819

     60  H    Isotropic =    23.7467   Anisotropy =     3.3732

     61  H    Isotropic =    23.8464   Anisotropy =     5.5959

     62  H    Isotropic =    23.4896   Anisotropy =    11.0441

     63  H    Isotropic =    24.4976   Anisotropy =    13.2796

     64  H    Isotropic =    24.1621   Anisotropy =     6.2335

     65  H    Isotropic =    24.1449   Anisotropy =     4.2137

     66  H    Isotropic =    23.9820   Anisotropy =     7.3942

     67  H    Isotropic =    24.3307   Anisotropy =     9.1010

 Normal termination of Gaussian 09 at Sun Dec  5 00:51:01 2021.
 Gaussian 09:  ES64L-G09RevE.01 30-Nov-2015

 ----------------------------------------------------------------------
 # PBE1PBE/def2TZVP int=(grid=ultrafine) empiricaldispersion=GD3BJ pop=
 nbo guess=read geom=check
 ----------------------------------------------------------------------

 ---------------
 RR_DIOP_1 title
 ---------------
 Structure from the checkpoint file:  "RR_DIOP_1_SPE_NoPd.chk"
 Charge =  0 Multiplicity = 1

                         Standard orientation:
 ---------------------------------------------------------------------
 Center     Atomic      Atomic             Coordinates (Angstroms)
 Number     Number       Type             X           Y           Z
 ---------------------------------------------------------------------
      1         15           0       -2.031850   -0.126021   -0.642552
      2         15           0        1.338064    0.669892   -0.674977
      3          8           0        0.038343   -3.220667    1.074330
      4          8           0        1.674125   -1.803395    1.897152
      5          6           0       -1.631201   -1.710887    0.251584
      6          6           0       -0.147571   -1.924079    0.500992
      7          6           0        0.527473   -1.025448    1.547480
      8          6           0        0.978093    0.378475    1.135024
      9          6           0        1.311345   -3.197245    1.758650
     10          6           0        1.107351   -3.830430    3.133630
     11          6           0        2.387680   -3.882284    0.920828
     12          6           0       -3.747120   -0.482922   -1.188646
     13          6           0       -3.953398   -1.509036   -2.133330
     14          6           0       -5.252492   -1.847953   -2.523824
     15          6           0       -6.352301   -1.155807   -1.993712
     16          6           0       -6.148395   -0.122285   -1.071213
     17          6           0       -4.848937    0.216777   -0.666918
     18          6           0       -2.232301    1.180231    0.634711
     19          6           0       -2.008846    2.511193    0.225019
     20          6           0       -2.150617    3.564272    1.138943
     21          6           0       -2.504191    3.297141    2.470001
     22          6           0       -2.734921    1.975933    2.881550
     23          6           0       -2.609733    0.920742    1.967123
     24          6           0        2.720240   -0.482718   -1.040638
     25          6           0        2.643970   -1.353575   -2.142929
     26          6           0        3.692670   -2.247260   -2.402589
     27          6           0        4.821740   -2.269468   -1.571601
     28          6           0        4.902008   -1.398424   -0.474355
     29          6           0        3.854147   -0.510297   -0.205057
     30          6           0        2.104070    2.336096   -0.596049
     31          6           0        3.239477    2.629789   -1.376484
     32          6           0        3.806485    3.909063   -1.332916
     33          6           0        3.245583    4.906225   -0.522316
     34          6           0        2.110658    4.620124    0.248890
     35          6           0        1.539534    3.341529    0.213587
     36          1           0       -2.205118   -1.785735    1.191870
     37          1           0       -1.999728   -2.515662   -0.407669
     38          1           0        0.397624   -1.845391   -0.463266
     39          1           0       -0.155464   -0.933823    2.423500
     40          1           0        1.877678    0.639941    1.717635
     41          1           0        0.196033    1.102940    1.410353
     42          1           0        0.365973   -3.251531    3.707575
     43          1           0        0.739682   -4.864087    3.026611
     44          1           0        2.058375   -3.847533    3.689936
     45          1           0        2.166433   -4.957761    0.824409
     46          1           0        2.432511   -3.430404   -0.082207
     47          1           0        3.374242   -3.761995    1.397165
     48          1           0       -3.097447   -2.017291   -2.587446
     49          1           0       -5.404873   -2.641861   -3.261660
     50          1           0       -7.367520   -1.417259   -2.309066
     51          1           0       -7.001786    0.427645   -0.661485
     52          1           0       -4.697964    1.025653    0.053373
     53          1           0       -1.706100    2.706276   -0.811082
     54          1           0       -1.972869    4.593157    0.809835
     55          1           0       -2.602078    4.118089    3.187423
     56          1           0       -3.015923    1.764489    3.918296
     57          1           0       -2.807809   -0.102860    2.299688
     58          1           0        1.776357   -1.300769   -2.807894
     59          1           0        3.628779   -2.918064   -3.265154
     60          1           0        5.642629   -2.963454   -1.779741
     61          1           0        5.782741   -1.411291    0.175881
     62          1           0        3.926033    0.167463    0.651341
     63          1           0        3.667413    1.859537   -2.022312
     64          1           0        4.687301    4.128753   -1.944653
     65          1           0        3.689547    5.906565   -0.495353
     66          1           0        1.664000    5.394506    0.881428
     67          1           0        0.645390    3.141339    0.811137
 ---------------------------------------------------------------------

 SCF Done:  E(RPBE1PBE) =  -2032.44729214     A.U. after    2 cycles

 The electronic state is 1-A.
 Alpha  occ. eigenvalues --  -77.19917 -77.19575 -19.21065 -19.20938 -10.32448
 Alpha  occ. eigenvalues --  -10.28140 -10.27764 -10.24874 -10.24548 -10.24530
 Alpha  occ. eigenvalues --  -10.24409 -10.24389 -10.24333 -10.23948 -10.23908
 Alpha  occ. eigenvalues --  -10.23848 -10.23780 -10.23769 -10.23567 -10.23529
 Alpha  occ. eigenvalues --  -10.23399 -10.23309 -10.23232 -10.23126 -10.23010
 Alpha  occ. eigenvalues --  -10.23004 -10.22961 -10.22922 -10.22916 -10.22900
 Alpha  occ. eigenvalues --  -10.22865 -10.22801 -10.22748 -10.21085 -10.20582
 Alpha  occ. eigenvalues --   -6.59539  -6.59204  -4.73144  -4.73105  -4.72803
 Alpha  occ. eigenvalues --   -4.72776  -4.72664  -4.72333  -1.10852  -1.01608
 Alpha  occ. eigenvalues --   -0.89100  -0.88310  -0.87696  -0.87493  -0.83996
 Alpha  occ. eigenvalues --   -0.79560  -0.79044  -0.77961  -0.77144  -0.77044
 Alpha  occ. eigenvalues --   -0.76692  -0.76521  -0.76252  -0.75979  -0.75250
 Alpha  occ. eigenvalues --   -0.71105  -0.68116  -0.65832  -0.64095  -0.63300
 Alpha  occ. eigenvalues --   -0.62569  -0.62420  -0.61855  -0.61733  -0.61376
 Alpha  occ. eigenvalues --   -0.60359  -0.59290  -0.57246  -0.56201  -0.54409
 Alpha  occ. eigenvalues --   -0.53443  -0.52957  -0.51314  -0.51203  -0.49062
 Alpha  occ. eigenvalues --   -0.47701  -0.47510  -0.47064  -0.46998  -0.46620
 Alpha  occ. eigenvalues --   -0.46473  -0.46093  -0.45990  -0.45724  -0.45285
 Alpha  occ. eigenvalues --   -0.44997  -0.44384  -0.43998  -0.43676  -0.43411
 Alpha  occ. eigenvalues --   -0.43096  -0.42590  -0.41890  -0.41004  -0.40910
 Alpha  occ. eigenvalues --   -0.40137  -0.39609  -0.39286  -0.38869  -0.38786
 Alpha  occ. eigenvalues --   -0.38295  -0.38105  -0.37856  -0.37317  -0.36698
 Alpha  occ. eigenvalues --   -0.36377  -0.35945  -0.35673  -0.35567  -0.35011
 Alpha  occ. eigenvalues --   -0.34685  -0.34084  -0.33555  -0.33280  -0.32839
 Alpha  occ. eigenvalues --   -0.29201  -0.28432  -0.28252  -0.27736  -0.27308
 Alpha  occ. eigenvalues --   -0.27157  -0.26602  -0.26528  -0.26394  -0.25841
 Alpha  occ. eigenvalues --   -0.23198  -0.19741
 Alpha virt. eigenvalues --   -0.03598  -0.02950  -0.02861  -0.01877  -0.01530
 Alpha virt. eigenvalues --   -0.01152  -0.00764  -0.00360   0.03425   0.04014
 Alpha virt. eigenvalues --    0.04817   0.05509   0.05772   0.06084   0.06306

 Mulliken charges:
               1
     1  P    0.082852
     2  P    0.064961
     3  O   -0.295548
     4  O   -0.304640
     5  C   -0.316610
     6  C    0.060782
     7  C    0.124911
     8  C   -0.353300
     9  C    0.334329
    10  C   -0.376090
    11  C   -0.366497
    12  C    0.180462
    13  C   -0.267067
    14  C   -0.104263
    15  C   -0.125148
    16  C   -0.134644
    17  C   -0.199536
    18  C   -0.015437
    19  C   -0.132405
    20  C   -0.152068
    21  C   -0.086592
    22  C   -0.139475
    23  C   -0.144872
    24  C    0.029676
    25  C   -0.163795
    26  C   -0.124733
    27  C   -0.109611
    28  C   -0.127840
    29  C   -0.144014
    30  C    0.100141
    31  C   -0.165938
    32  C   -0.143990
    33  C   -0.105801
    34  C   -0.172498
    35  C   -0.176812
    36  H    0.122842
    37  H    0.141874
    38  H    0.082279
    39  H    0.067540
    40  H    0.138146
    41  H    0.173113
    42  H    0.121075
    43  H    0.124999
    44  H    0.118998
    45  H    0.117146
    46  H    0.148556
    47  H    0.111322
    48  H    0.125743
    49  H    0.117645
    50  H    0.116814
    51  H    0.115807
    52  H    0.148238
    53  H    0.139951
    54  H    0.127982
    55  H    0.124333
    56  H    0.123161
    57  H    0.116470
    58  H    0.130769
    59  H    0.118745
    60  H    0.119558
    61  H    0.117735
    62  H    0.120223
    63  H    0.141858
    64  H    0.115899
    65  H    0.114990
    66  H    0.109716
    67  H    0.157586
 Sum of Mulliken charges =  -0.00000

 Dipole moment (field-independent basis, Debye):
    X=              0.1769    Y=              0.3065    Z=              1.4162  Tot=              1.4598
 Quadrupole moment (field-independent basis, Debye-Ang):
   XX=           -208.0852   YY=           -209.0468   ZZ=           -215.1788
   XY=             -5.6204   XZ=             -6.0786   YZ=             10.9464

 Summary of Natural Population Analysis:

                                       Natural Population
                Natural  -----------------------------------------------
    Atom  No    Charge         Core      Valence    Rydberg      Total
 -----------------------------------------------------------------------
      P    1    0.82453      9.99808     4.14727    0.03012    14.17547
      P    2    0.81558      9.99810     4.15636    0.02996    14.18442
      O    3   -0.51517      1.99978     6.49377    0.02162     8.51517
      O    4   -0.51632      1.99978     6.49475    0.02179     8.51632
      C    5   -0.70700      1.99936     4.68392    0.02372     6.70700
      C    6    0.04920      1.99920     3.92939    0.02222     5.95080
      C    7    0.06195      1.99922     3.91576    0.02306     5.93805
      C    8   -0.72203      1.99936     4.69995    0.02272     6.72203
      C    9    0.50993      1.99933     3.46819    0.02254     5.49007
      C   10   -0.64863      1.99937     4.63577    0.01349     6.64863
      C   11   -0.65517      1.99937     4.64127    0.01454     6.65517
      C   12   -0.31732      1.99905     4.28812    0.03015     6.31732
      C   13   -0.21896      1.99912     4.19993    0.01991     6.21896
      C   14   -0.20784      1.99921     4.18987    0.01876     6.20784
      C   15   -0.22214      1.99922     4.20437    0.01856     6.22214
      C   16   -0.20574      1.99921     4.18842    0.01811     6.20574
      C   17   -0.22006      1.99911     4.20122    0.01974     6.22006
      C   18   -0.34076      1.99907     4.30915    0.03255     6.34076
      C   19   -0.21273      1.99911     4.19375    0.01988     6.21273
      C   20   -0.21859      1.99921     4.20124    0.01815     6.21859
      C   21   -0.21061      1.99922     4.19322    0.01817     6.21061
      C   22   -0.21281      1.99921     4.19563    0.01797     6.21281
      C   23   -0.21742      1.99909     4.19867    0.01966     6.21742
      C   24   -0.34125      1.99906     4.30986    0.03233     6.34125
      C   25   -0.20918      1.99912     4.19066    0.01941     6.20918
      C   26   -0.22397      1.99921     4.20596    0.01880     6.22397
      C   27   -0.20646      1.99922     4.18908    0.01817     6.20646
      C   28   -0.21582      1.99921     4.19835    0.01827     6.21582
      C   29   -0.18322      1.99910     4.16447    0.01964     6.18322
      C   30   -0.32111      1.99905     4.29326    0.02880     6.32111
      C   31   -0.21709      1.99911     4.19848    0.01949     6.21709
      C   32   -0.20617      1.99921     4.18899    0.01796     6.20617
      C   33   -0.22572      1.99922     4.20781    0.01870     6.22572
      C   34   -0.20780      1.99921     4.19058    0.01801     6.20780
      C   35   -0.22758      1.99911     4.20885    0.01962     6.22758
      H   36    0.22132      0.00000     0.77582    0.00286     0.77868
      H   37    0.25709      0.00000     0.74135    0.00156     0.74291
      H   38    0.18996      0.00000     0.80746    0.00258     0.81004
      H   39    0.17259      0.00000     0.82450    0.00290     0.82741
      H   40    0.24366      0.00000     0.75377    0.00257     0.75634
      H   41    0.25409      0.00000     0.74430    0.00161     0.74591
      H   42    0.21974      0.00000     0.77919    0.00106     0.78026
      H   43    0.22135      0.00000     0.77774    0.00090     0.77865
      H   44    0.21836      0.00000     0.78075    0.00089     0.78164
      H   45    0.21664      0.00000     0.78246    0.00090     0.78336
      H   46    0.23154      0.00000     0.76708    0.00139     0.76846
      H   47    0.22206      0.00000     0.77697    0.00097     0.77794
      H   48    0.21845      0.00000     0.77992    0.00163     0.78155
      H   49    0.21766      0.00000     0.78106    0.00129     0.78234
      H   50    0.21728      0.00000     0.78153    0.00119     0.78272
      H   51    0.21653      0.00000     0.78213    0.00134     0.78347
      H   52    0.22568      0.00000     0.77235    0.00197     0.77432
      H   53    0.23710      0.00000     0.76110    0.00180     0.76290
      H   54    0.22447      0.00000     0.77425    0.00129     0.77553
      H   55    0.22129      0.00000     0.77755    0.00116     0.77871
      H   56    0.22098      0.00000     0.77772    0.00131     0.77902
      H   57    0.21870      0.00000     0.77896    0.00233     0.78130
      H   58    0.22973      0.00000     0.76874    0.00153     0.77027
      H   59    0.22081      0.00000     0.77792    0.00127     0.77919
      H   60    0.21941      0.00000     0.77942    0.00117     0.78059
      H   61    0.21884      0.00000     0.77981    0.00136     0.78116
      H   62    0.22198      0.00000     0.77563    0.00239     0.77802
      H   63    0.22502      0.00000     0.77325    0.00173     0.77498
      H   64    0.21694      0.00000     0.78177    0.00129     0.78306
      H   65    0.21662      0.00000     0.78219    0.00119     0.78338
      H   66    0.21532      0.00000     0.78335    0.00133     0.78468
      H   67    0.22232      0.00000     0.77570    0.00199     0.77768
 =======================================================================
   * Total *    0.00000     85.97060   177.23205    0.79735   264.00000

 Normal termination of Gaussian 09 at Sun Dec  5 00:56:35 2021.
