 Gaussian 09, Revision E.01,

 ----------------------------------------------------------------------
 # PBE1PBE gen pseudo=read int=(grid=ultrafine) empiricaldispersion=GD3
 BJ nmr=giao
 ----------------------------------------------------------------------

 ---------------
 RR_DIOP_2 title
 ---------------
 Symbolic Z-matrix:
 Charge =  0 Multiplicity = 1

 SCF Done:  E(RPBE1PBE) =  -3080.63402846     A.U. after   18 cycles

      1  P    Isotropic =   241.4741   Anisotropy =   123.7551

      2  P    Isotropic =   262.6863   Anisotropy =   134.2006

      3  O    Isotropic =   185.3243   Anisotropy =   104.4014

      4  O    Isotropic =   188.3496   Anisotropy =   119.5153

      5  C    Isotropic =   147.8079   Anisotropy =    38.5736

      6  C    Isotropic =   104.3852   Anisotropy =    55.1475

      7  C    Isotropic =   104.2569   Anisotropy =    54.1388

      8  C    Isotropic =   154.4291   Anisotropy =    33.1506

      9  C    Isotropic =    70.0716   Anisotropy =    41.9673

     10  C    Isotropic =   158.8907   Anisotropy =    43.0089

     11  C    Isotropic =   160.1391   Anisotropy =    37.0845

     12  C    Isotropic =    45.2989   Anisotropy =   176.0753

     13  C    Isotropic =    41.4746   Anisotropy =   201.1470

     14  C    Isotropic =    52.4699   Anisotropy =   185.4898

     15  C    Isotropic =    49.4354   Anisotropy =   190.5359

     16  C    Isotropic =    53.0353   Anisotropy =   182.7932

     17  C    Isotropic =    47.7408   Anisotropy =   190.4566

     18  C    Isotropic =    46.2265   Anisotropy =   189.4572

     19  C    Isotropic =    37.1172   Anisotropy =   193.8468

     20  C    Isotropic =    49.3696   Anisotropy =   192.5886

     21  C    Isotropic =    47.5505   Anisotropy =   194.9923

     22  C    Isotropic =    52.0832   Anisotropy =   187.0359

     23  C    Isotropic =    48.6166   Anisotropy =   195.1434

     24  C    Isotropic =    46.3986   Anisotropy =   176.3907

     25  C    Isotropic =    44.2665   Anisotropy =   195.9640

     26  C    Isotropic =    53.0632   Anisotropy =   184.1332

     27  C    Isotropic =    48.1351   Anisotropy =   193.1810

     28  C    Isotropic =    51.5765   Anisotropy =   186.4085

     29  C    Isotropic =    35.4012   Anisotropy =   201.1448

     30  C    Isotropic =    42.6538   Anisotropy =   177.6150

     31  C    Isotropic =    36.0665   Anisotropy =   194.4345

     32  C    Isotropic =    52.2770   Anisotropy =   184.4710

     33  C    Isotropic =    49.0437   Anisotropy =   191.0941

     34  C    Isotropic =    52.8318   Anisotropy =   183.1615

     35  C    Isotropic =    48.8371   Anisotropy =   189.8006

     36  H    Isotropic =    28.8822   Anisotropy =     5.9746

     37  H    Isotropic =    28.7262   Anisotropy =     7.5284

     38  H    Isotropic =    26.6182   Anisotropy =     9.2263

     39  H    Isotropic =    28.0129   Anisotropy =     7.5472

     40  H    Isotropic =    28.8179   Anisotropy =     7.8607

     41  H    Isotropic =    30.9651   Anisotropy =    12.9607

     42  H    Isotropic =    30.4210   Anisotropy =     7.6847

     43  H    Isotropic =    30.3193   Anisotropy =     9.9583

     44  H    Isotropic =    30.4047   Anisotropy =     9.7727

     45  H    Isotropic =    30.8657   Anisotropy =     9.6516

     46  H    Isotropic =    32.0825   Anisotropy =    11.5810

     47  H    Isotropic =    30.9774   Anisotropy =     5.9045

     48  H    Isotropic =    23.1069   Anisotropy =    12.3374

     49  H    Isotropic =    23.6415   Anisotropy =     6.7637

     50  H    Isotropic =    23.7955   Anisotropy =     3.8125

     51  H    Isotropic =    24.0593   Anisotropy =     7.1637

     52  H    Isotropic =    24.7746   Anisotropy =    15.1466

     53  H    Isotropic =    22.0640   Anisotropy =    11.0249

     54  H    Isotropic =    23.9926   Anisotropy =     7.7912

     55  H    Isotropic =    23.7434   Anisotropy =     4.2625

     56  H    Isotropic =    23.7383   Anisotropy =     5.3010

     57  H    Isotropic =    23.5613   Anisotropy =    10.4242

     58  H    Isotropic =    23.0154   Anisotropy =    10.5791

     59  H    Isotropic =    23.8189   Anisotropy =     5.7942

     60  H    Isotropic =    23.7297   Anisotropy =     3.5346

     61  H    Isotropic =    23.6184   Anisotropy =     6.8615

     62  H    Isotropic =    21.4172   Anisotropy =    14.5728

     63  H    Isotropic =    21.6221   Anisotropy =    14.9326

     64  H    Isotropic =    23.6056   Anisotropy =     7.7651

     65  H    Isotropic =    23.7417   Anisotropy =     3.9974

     66  H    Isotropic =    23.8939   Anisotropy =     6.2612

     67  H    Isotropic =    23.3208   Anisotropy =    12.0398

     68  Cl   Isotropic =   911.9648   Anisotropy =   592.5546

     69  Cl   Isotropic =   807.5997   Anisotropy =   274.5787

     70  Pd   Isotropic =  -137.7292   Anisotropy =   239.0818

 1\1\GINC-NC156\SP\RPBE1PBE\Gen\C31H32Cl2O2P2Pd1\MACKK4\05-Dec-2021\0\\
 # PBE1PBE gen pseudo=read int=(grid=ultrafine) empiricaldispersion=GD3
 BJ nmr=giao\\RR_DIOP_2 title\\0,1\P,0,1.2487850552,4.5917820416,-0.077
 6937166\P,0,-0.4893576798,3.062099832,-2.6519668579\O,0,-0.6170152744,
 1.282141516,1.4444661794\O,0,-0.4179027863,0.1263123908,-0.5500068573\
 C,0,0.7003267875,3.2445404068,1.0828440904\C,0,-0.1858365325,2.1952035
 338,0.4325588435\C,0,0.4732716018,1.2453605714,-0.5798281355\C,0,0.646
 8291134,1.7166367202,-2.028317781\C,0,-1.017171548,0.072467018,0.76771

 Normal termination of Gaussian 09 at Sun Dec  5 01:33:52 2021.
 Gaussian 09:  ES64L-G09RevE.01 30-Nov-2015

 ----------------------------------------------------------------------
 # PBE1PBE gen pseudo=read int=(grid=ultrafine) empiricaldispersion=GD3
 BJ pop=nbo guess=read geom=check
 ----------------------------------------------------------------------

 ---------------
 RR_DIOP_2 title
 ---------------
 Structure from the checkpoint file:  "RR_DIOP_2_SPE.chk"
 Charge =  0 Multiplicity = 1

                         Standard orientation:
 ---------------------------------------------------------------------
 Center     Atomic      Atomic             Coordinates (Angstroms)
 Number     Number       Type             X           Y           Z
 ---------------------------------------------------------------------
      1         15           0       -1.880813   -0.409167    0.094308
      2         15           0        1.429079    0.598251   -0.038621
      3          8           0        0.470758   -3.692896    0.756982
      4          8           0        2.110727   -2.435695    1.797874
      5          6           0       -1.329421   -2.142602    0.486591
      6          6           0        0.179745   -2.308545    0.550982
      7          6           0        0.910125   -1.659666    1.737175
      8          6           0        1.271707   -0.172041    1.656081
      9          6           0        1.808182   -3.759657    1.293897
     10          6           0        1.796172   -4.767447    2.440879
     11          6           0        2.813912   -4.093803    0.194252
     12          6           0       -3.640096   -0.700866   -0.335886
     13          6           0       -3.943477   -1.519174   -1.443261
     14          6           0       -5.275960   -1.799606   -1.760713
     15          6           0       -6.315100   -1.251359   -0.993180
     16          6           0       -6.016818   -0.419931    0.093367
     17          6           0       -4.682641   -0.142560    0.424307
     18          6           0       -1.951831    0.491312    1.694625
     19          6           0       -1.688181    1.875371    1.673538
     20          6           0       -1.684201    2.614638    2.862998
     21          6           0       -1.950784    1.977795    4.083706
     22          6           0       -2.236575    0.604196    4.110185
     23          6           0       -2.242677   -0.138082    2.921300
     24          6           0        2.855962   -0.305710   -0.779826
     25          6           0        3.991120   -0.635518   -0.010802
     26          6           0        5.064938   -1.320857   -0.591207
     27          6           0        5.006713   -1.713405   -1.935951
     28          6           0        3.867106   -1.419086   -2.696580
     29          6           0        2.798061   -0.714112   -2.126531
     30          6           0        1.968197    2.291534    0.458394
     31          6           0        1.182648    3.400677    0.091236
     32          6           0        1.515448    4.683290    0.546019
     33          6           0        2.640225    4.873821    1.360131
     34          6           0        3.435599    3.775651    1.717009
     35          6           0        3.100075    2.490403    1.272894
     36          1           0       -1.802850   -2.500297    1.417559
     37          1           0       -1.721161   -2.770664   -0.331821
     38          1           0        0.627772   -1.954094   -0.402290
     39          1           0        0.302760   -1.824339    2.656316
     40          1           0        2.214587   -0.019365    2.208129
     41          1           0        0.511120    0.430088    2.176401
     42          1           0        1.090212   -4.438767    3.220291
     43          1           0        1.481817   -5.758643    2.075123
     44          1           0        2.802514   -4.854556    2.881180
     45          1           0        2.635128   -5.113461   -0.184281
     46          1           0        2.722345   -3.377882   -0.637652
     47          1           0        3.842082   -4.033493    0.586098
     48          1           0       -3.140212   -1.908305   -2.075870
     49          1           0       -5.503677   -2.432647   -2.624030
     50          1           0       -7.357449   -1.465696   -1.250176
     51          1           0       -6.823165    0.018861    0.689861
     52          1           0       -4.457570    0.507634    1.274297
     53          1           0       -1.457134    2.356357    0.717111
     54          1           0       -1.455391    3.684526    2.833661
     55          1           0       -1.935358    2.550497    5.016450
     56          1           0       -2.452257    0.106335    5.061059
     57          1           0       -2.475216   -1.206979    2.956706
     58          1           0        4.038873   -0.392430    1.053264
     59          1           0        5.942529   -1.563154    0.017057
     60          1           0        5.844507   -2.256360   -2.385515
     61          1           0        3.807036   -1.728963   -3.744690
     62          1           0        1.923477   -0.453767   -2.728911
     63          1           0        0.334182    3.254939   -0.583720
     64          1           0        0.899759    5.537450    0.246145
     65          1           0        2.903534    5.877542    1.709468
     66          1           0        4.323036    3.917517    2.342392
     67          1           0        3.738325    1.648546    1.556060
     68         17           0        0.914599    1.900733   -2.877855
     69         17           0       -2.275309    0.874414   -2.880611
     70         46           0       -0.470369    0.665447   -1.371732
 ---------------------------------------------------------------------

 SCF Done:  E(RPBE1PBE) =  -3080.63402846     A.U. after    2 cycles

 The electronic state is 1-A.
 Alpha  occ. eigenvalues -- -101.61787-101.61377 -77.27093 -77.26678 -19.22975
 Alpha  occ. eigenvalues --  -19.22751 -10.34038 -10.30317 -10.30048 -10.27184
 Alpha  occ. eigenvalues --  -10.26652 -10.26211 -10.26130 -10.26123 -10.26079
 Alpha  occ. eigenvalues --  -10.25843 -10.25819 -10.25788 -10.25741 -10.25544
 Alpha  occ. eigenvalues --  -10.25072 -10.24970 -10.24612 -10.24574 -10.24477
 Alpha  occ. eigenvalues --  -10.24455 -10.24436 -10.24328 -10.24246 -10.24197
 Alpha  occ. eigenvalues --  -10.24136 -10.24041 -10.24015 -10.23907 -10.23898
 Alpha  occ. eigenvalues --  -10.22402 -10.21816  -9.44305  -9.43885  -7.17506
 Alpha  occ. eigenvalues --   -7.17098  -7.17022  -7.16979  -7.16618  -7.16535
 Alpha  occ. eigenvalues --   -6.66315  -6.65830  -4.79920  -4.79875  -4.79645
 Alpha  occ. eigenvalues --   -4.79421  -4.79380  -4.79195  -3.52442  -2.20152
 Alpha  occ. eigenvalues --   -2.20009  -2.16749  -1.12711  -1.03481  -0.91047
 Alpha  occ. eigenvalues --   -0.89510  -0.89027  -0.88881  -0.86197  -0.81978
 Alpha  occ. eigenvalues --   -0.81085  -0.79706  -0.78867  -0.78089  -0.77849
 Alpha  occ. eigenvalues --   -0.77800  -0.77751  -0.77657  -0.77324  -0.74563
 Alpha  occ. eigenvalues --   -0.73609  -0.72417  -0.70682  -0.68436  -0.66296
 Alpha  occ. eigenvalues --   -0.65141  -0.64037  -0.63625  -0.63145  -0.63065
 Alpha  occ. eigenvalues --   -0.62742  -0.62272  -0.61129  -0.59497  -0.58461
 Alpha  occ. eigenvalues --   -0.56386  -0.55030  -0.54221  -0.53409  -0.53115
 Alpha  occ. eigenvalues --   -0.51238  -0.49688  -0.49292  -0.48680  -0.48551
 Alpha  occ. eigenvalues --   -0.48314  -0.47826  -0.47547  -0.47524  -0.47331
 Alpha  occ. eigenvalues --   -0.47014  -0.46612  -0.46166  -0.45836  -0.45181
 Alpha  occ. eigenvalues --   -0.44572  -0.44258  -0.44123  -0.43881  -0.43134
 Alpha  occ. eigenvalues --   -0.42863  -0.42075  -0.41727  -0.41039  -0.40938
 Alpha  occ. eigenvalues --   -0.40316  -0.40027  -0.39654  -0.39440  -0.38922
 Alpha  occ. eigenvalues --   -0.38575  -0.38526  -0.37764  -0.37663  -0.37246
 Alpha  occ. eigenvalues --   -0.36975  -0.36907  -0.36602  -0.36516  -0.36219
 Alpha  occ. eigenvalues --   -0.36180  -0.35555  -0.34918  -0.33810  -0.31569
 Alpha  occ. eigenvalues --   -0.31529  -0.30973  -0.30575  -0.29750  -0.29381
 Alpha  occ. eigenvalues --   -0.29017  -0.28442  -0.27947  -0.27822  -0.27616
 Alpha  occ. eigenvalues --   -0.27530  -0.27266  -0.26951  -0.26261  -0.25118
 Alpha  occ. eigenvalues --   -0.24349  -0.23984  -0.23424
 Alpha virt. eigenvalues --   -0.07419  -0.05615  -0.04770  -0.04361  -0.02974
 Alpha virt. eigenvalues --   -0.02779  -0.02257  -0.01951  -0.01539  -0.00099
 Alpha virt. eigenvalues --    0.00852   0.02692   0.03482   0.03679   0.03858

 Mulliken charges:
               1
     1  P    0.289129
     2  P    0.126559
     3  O   -0.289218
     4  O   -0.306784
     5  C   -0.353263
     6  C    0.028196
     7  C    0.111132
     8  C   -0.312565
     9  C    0.317447
    10  C   -0.373270
    11  C   -0.364347
    12  C    0.146024
    13  C   -0.232897
    14  C   -0.119050
    15  C   -0.101688
    16  C   -0.148752
    17  C   -0.176097
    18  C   -0.115948
    19  C   -0.045392
    20  C   -0.141687
    21  C   -0.087426
    22  C   -0.131121
    23  C   -0.156085
    24  C    0.087792
    25  C   -0.154009
    26  C   -0.182650
    27  C   -0.093171
    28  C   -0.150972
    29  C   -0.101558
    30  C    0.171882
    31  C   -0.153693
    32  C   -0.165749
    33  C   -0.095357
    34  C   -0.154959
    35  C   -0.197639
    36  H    0.144825
    37  H    0.165974
    38  H    0.154251
    39  H    0.072578
    40  H    0.150104
    41  H    0.197424
    42  H    0.120662
    43  H    0.129897
    44  H    0.122658
    45  H    0.124835
    46  H    0.152570
    47  H    0.112274
    48  H    0.152130
    49  H    0.125264
    50  H    0.122882
    51  H    0.120815
    52  H    0.153005
    53  H    0.178480
    54  H    0.130255
    55  H    0.130339
    56  H    0.129738
    57  H    0.125307
    58  H    0.116201
    59  H    0.119068
    60  H    0.122395
    61  H    0.128429
    62  H    0.176307
    63  H    0.231734
    64  H    0.129259
    65  H    0.123264
    66  H    0.121547
    67  H    0.093770
    68  Cl  -0.400881
    69  Cl  -0.408972
    70  Pd   0.058799
 Sum of Mulliken charges =  -0.00000

 Dipole moment (field-independent basis, Debye):
    X=              1.1823    Y=             -3.2348    Z=             10.0686  Tot=             10.6414
 Quadrupole moment (field-independent basis, Debye-Ang):
   XX=           -240.1084   YY=           -252.0758   ZZ=           -272.5973
   XY=              0.0105   XZ=             -7.1996   YZ=             24.9247

 Summary of Natural Population Analysis:

                                       Natural Population
                Natural  -----------------------------------------------
    Atom  No    Charge         Core      Valence    Rydberg      Total
 -----------------------------------------------------------------------
      P    1    1.18708      9.99574     3.76520    0.05198    13.81292
      P    2    1.16689      9.99589     3.78195    0.05526    13.83311
      O    3   -0.50965      1.99978     6.48813    0.02174     8.50965
      O    4   -0.51756      1.99978     6.49636    0.02142     8.51756
      C    5   -0.72584      1.99933     4.69907    0.02744     6.72584
      C    6    0.05034      1.99918     3.92856    0.02192     5.94966
      C    7    0.05956      1.99922     3.91762    0.02360     5.94044
      C    8   -0.74946      1.99933     4.72319    0.02693     6.74946
      C    9    0.51092      1.99933     3.46729    0.02245     5.48908
      C   10   -0.64809      1.99937     4.63525    0.01346     6.64809
      C   11   -0.65682      1.99937     4.64283    0.01462     6.65682
      C   12   -0.34805      1.99901     4.31173    0.03731     6.34805
      C   13   -0.17366      1.99911     4.15489    0.01967     6.17366
      C   14   -0.20859      1.99921     4.19073    0.01865     6.20859
      C   15   -0.19502      1.99922     4.17782    0.01798     6.19502
      C   16   -0.21183      1.99921     4.19478    0.01783     6.21183
      C   17   -0.20042      1.99911     4.18191    0.01941     6.20042
      C   18   -0.37307      1.99903     4.33820    0.03584     6.37307
      C   19   -0.19500      1.99910     4.17699    0.01892     6.19500
      C   20   -0.20508      1.99920     4.18824    0.01763     6.20508
      C   21   -0.19566      1.99922     4.17859    0.01785     6.19566
      C   22   -0.21175      1.99921     4.19480    0.01774     6.21175
      C   23   -0.21030      1.99910     4.19124    0.01996     6.21030
      C   24   -0.37437      1.99898     4.33977    0.03562     6.37437
      C   25   -0.18588      1.99910     4.16623    0.02056     6.18588
      C   26   -0.21977      1.99920     4.20227    0.01829     6.21977
      C   27   -0.19461      1.99921     4.17754    0.01786     6.19461
      C   28   -0.21504      1.99921     4.19775    0.01809     6.21504
      C   29   -0.17670      1.99911     4.15941    0.01818     6.17670
      C   30   -0.35581      1.99899     4.32063    0.03619     6.35581
      C   31   -0.17275      1.99910     4.15433    0.01932     6.17275
      C   32   -0.21333      1.99921     4.19631    0.01782     6.21333
      C   33   -0.19556      1.99922     4.17843    0.01792     6.19556
      C   34   -0.21348      1.99921     4.19653    0.01774     6.21348
      C   35   -0.19885      1.99911     4.18013    0.01961     6.19885
      H   36    0.24208      0.00000     0.75592    0.00200     0.75792
      H   37    0.26800      0.00000     0.73055    0.00145     0.73200
      H   38    0.20230      0.00000     0.79521    0.00249     0.79770
      H   39    0.17865      0.00000     0.81849    0.00286     0.82135
      H   40    0.25592      0.00000     0.74212    0.00196     0.74408
      H   41    0.26606      0.00000     0.73216    0.00178     0.73394
      H   42    0.21992      0.00000     0.77903    0.00105     0.78008
      H   43    0.22425      0.00000     0.77487    0.00088     0.77575
      H   44    0.22102      0.00000     0.77812    0.00086     0.77898
      H   45    0.22061      0.00000     0.77850    0.00089     0.77939
      H   46    0.23207      0.00000     0.76643    0.00150     0.76793
      H   47    0.22375      0.00000     0.77524    0.00100     0.77625
      H   48    0.23487      0.00000     0.76366    0.00148     0.76513
      H   49    0.22408      0.00000     0.77469    0.00123     0.77592
      H   50    0.22079      0.00000     0.77805    0.00116     0.77921
      H   51    0.22106      0.00000     0.77769    0.00125     0.77894
      H   52    0.22739      0.00000     0.77081    0.00180     0.77261
      H   53    0.24599      0.00000     0.75205    0.00196     0.75401
      H   54    0.23108      0.00000     0.76763    0.00129     0.76892
      H   55    0.22523      0.00000     0.77363    0.00114     0.77477
      H   56    0.22560      0.00000     0.77315    0.00124     0.77440
      H   57    0.22125      0.00000     0.77673    0.00201     0.77875
      H   58    0.21282      0.00000     0.78463    0.00255     0.78718
      H   59    0.22103      0.00000     0.77769    0.00128     0.77897
      H   60    0.22128      0.00000     0.77755    0.00117     0.77872
      H   61    0.22660      0.00000     0.77216    0.00123     0.77340
      H   62    0.26065      0.00000     0.73773    0.00161     0.73935
      H   63    0.24989      0.00000     0.74807    0.00204     0.75011
      H   64    0.22468      0.00000     0.77409    0.00122     0.77532
      H   65    0.22079      0.00000     0.77805    0.00116     0.77921
      H   66    0.22097      0.00000     0.77779    0.00125     0.77903
      H   67    0.21306      0.00000     0.78491    0.00203     0.78694
     Cl   68   -0.40669      9.99962     7.39763    0.00944    17.40669
     Cl   69   -0.39338      9.99963     7.38451    0.00924    17.39338
     Pd   70   -0.22647     35.98915    10.21193    0.02538    46.22647
 =======================================================================
   * Total *    0.00000    141.95411   201.13616    0.90972   344.00000

 1\1\GINC-NC156\SP\RPBE1PBE\Gen\C31H32Cl2O2P2Pd1\MACKK4\05-Dec-2021\0\\
 # PBE1PBE gen pseudo=read int=(grid=ultrafine) empiricaldispersion=GD3
 BJ pop=nbo guess=read geom=check\\RR_DIOP_2 title\\0,1\P,0,1.248785055
 2,4.5917820416,-0.0776937166\P,0,-0.4893576798,3.062099832,-2.65196685
 79\O,0,-0.6170152744,1.282141516,1.4444661794\O,0,-0.4179027863,0.1263
 123908,-0.5500068573\C,0,0.7003267875,3.2445404068,1.0828440904\C,0,-0
 .1858365325,2.1952035338,0.4325588435\C,0,0.4732716018,1.2453605714,-0
 .5798281355\C,0,0.6468291134,1.7166367202,-2.028317781\C,0,-1.01717154

 Normal termination of Gaussian 09 at Sun Dec  5 01:41:04 2021.
