 Gaussian 16, Revision B.01,

 ----------------------------------------------------------------------
 # PBE1PBE gen pseudo=read int=(grid=ultrafine) empiricaldispersion=GD3
 BJ nmr=giao
 ----------------------------------------------------------------------

 -----
 title
 -----
 Symbolic Z-matrix:
 Charge =  0 Multiplicity = 1

 SCF Done:  E(RPBE1PBE) =  -3197.29433626     A.U. after   21 cycles

      1  P    Isotropic =   203.0395   Anisotropy =   158.5748

      2  P    Isotropic =   203.0408   Anisotropy =   158.5883

      3  O    Isotropic =   163.8103   Anisotropy =    55.2449

      4  O    Isotropic =   163.8080   Anisotropy =    55.2520

      5  C    Isotropic =    63.5250   Anisotropy =   117.3726

      6  C    Isotropic =    25.1248   Anisotropy =   199.1194

      7  C    Isotropic =    55.5123   Anisotropy =   159.7584

      8  H    Isotropic =    23.9936   Anisotropy =     8.7225

      9  C    Isotropic =    44.9819   Anisotropy =   190.3090

     10  H    Isotropic =    23.6078   Anisotropy =     3.8497

     11  C    Isotropic =    69.6173   Anisotropy =   148.3460

     12  H    Isotropic =    24.2036   Anisotropy =     7.1184

     13  C    Isotropic =    15.3464   Anisotropy =   116.4840

     14  C    Isotropic =    92.2000   Anisotropy =    57.1093

     15  H    Isotropic =    26.3853   Anisotropy =     5.4284

     16  C    Isotropic =    92.1975   Anisotropy =    57.1081

     17  H    Isotropic =    26.3853   Anisotropy =     5.4280

     18  C    Isotropic =    15.3467   Anisotropy =   116.4863

     19  C    Isotropic =    69.6176   Anisotropy =   148.3455

     20  H    Isotropic =    24.2036   Anisotropy =     7.1183

     21  C    Isotropic =    44.9815   Anisotropy =   190.3073

     22  H    Isotropic =    23.6079   Anisotropy =     3.8496

     23  C    Isotropic =    55.5136   Anisotropy =   159.7605

     24  H    Isotropic =    23.9936   Anisotropy =     8.7223

     25  C    Isotropic =    25.1242   Anisotropy =   199.1169

     26  C    Isotropic =    63.5259   Anisotropy =   117.3712

     27  C    Isotropic =   136.7908   Anisotropy =    30.4404

     28  C    Isotropic =   160.4277   Anisotropy =    30.8707

     29  H    Isotropic =    30.7340   Anisotropy =    11.6126

     30  H    Isotropic =    30.7092   Anisotropy =     6.3479

     31  H    Isotropic =    28.1653   Anisotropy =     8.5087

     32  C    Isotropic =   157.5008   Anisotropy =    41.9962

     33  H    Isotropic =    30.7308   Anisotropy =     5.4742

     34  H    Isotropic =    30.4514   Anisotropy =     7.5800

     35  H    Isotropic =    30.8322   Anisotropy =    11.8078

     36  C    Isotropic =   160.6285   Anisotropy =    32.5470

     37  H    Isotropic =    31.1496   Anisotropy =    11.5303

     38  H    Isotropic =    28.6050   Anisotropy =     8.5710

     39  H    Isotropic =    31.0556   Anisotropy =     6.7201

     40  C    Isotropic =   136.7913   Anisotropy =    30.4408

     41  C    Isotropic =   160.6306   Anisotropy =    32.5469

     42  H    Isotropic =    28.6045   Anisotropy =     8.5727

     43  H    Isotropic =    31.1495   Anisotropy =    11.5307

     44  H    Isotropic =    31.0558   Anisotropy =     6.7196

     45  C    Isotropic =   157.5000   Anisotropy =    41.9952

     46  H    Isotropic =    30.8322   Anisotropy =    11.8078

     47  H    Isotropic =    30.7307   Anisotropy =     5.4740

     48  H    Isotropic =    30.4511   Anisotropy =     7.5794

     49  C    Isotropic =   160.4284   Anisotropy =    30.8724

     50  H    Isotropic =    30.7091   Anisotropy =     6.3477

     51  H    Isotropic =    28.1660   Anisotropy =     8.5066

     52  H    Isotropic =    30.7339   Anisotropy =    11.6128

     53  Pd   Isotropic =  -185.7455   Anisotropy =   264.6120

     54  Cl   Isotropic =   918.3649   Anisotropy =   579.0264

     55  Cl   Isotropic =   918.3600   Anisotropy =   578.9939

     56  C    Isotropic =    49.0872   Anisotropy =   192.5474

     57  C    Isotropic =    51.8833   Anisotropy =   185.4208

     58  C    Isotropic =    53.2218   Anisotropy =   169.6251

     59  C    Isotropic =    40.4105   Anisotropy =   186.0786

     60  C    Isotropic =    45.0087   Anisotropy =   184.2962

     61  C    Isotropic =    44.2728   Anisotropy =   205.3326

     62  H    Isotropic =    23.6484   Anisotropy =     5.7210

     63  H    Isotropic =    23.7598   Anisotropy =     4.3720

     64  H    Isotropic =    23.8522   Anisotropy =     8.1452

     65  H    Isotropic =    22.1789   Anisotropy =     6.4323

     66  H    Isotropic =    22.9710   Anisotropy =    10.3454

     67  C    Isotropic =    49.0867   Anisotropy =   192.5484

     68  C    Isotropic =    44.2707   Anisotropy =   205.3367

     69  C    Isotropic =    45.0090   Anisotropy =   184.2934

     70  C    Isotropic =    40.4102   Anisotropy =   186.0780

     71  C    Isotropic =    53.2252   Anisotropy =   169.6254

     72  C    Isotropic =    51.8833   Anisotropy =   185.4206

     73  H    Isotropic =    23.6483   Anisotropy =     5.7220

     74  H    Isotropic =    22.9706   Anisotropy =    10.3476

     75  H    Isotropic =    22.1779   Anisotropy =     6.4353

     76  H    Isotropic =    23.8521   Anisotropy =     8.1450

     77  H    Isotropic =    23.7598   Anisotropy =     4.3717

 Normal termination of Gaussian 16 at Tue Nov  2 12:48:01 2021.
 Gaussian 16:  ES64L-G16RevB.01 20-Dec-2017

 ----------------------------------------------------------------------
 # PBE1PBE gen pseudo=read int=(grid=ultrafine) empiricaldispersion=GD3
 BJ pop=nbo guess=read geom=check
 ----------------------------------------------------------------------

 -----
 title
 -----
 Structure from the checkpoint file:  "SSSS-Ph-BIBOP_1_SPE.chk"
 Charge =  0 Multiplicity = 1

                         Standard orientation:
 ---------------------------------------------------------------------
 Center     Atomic      Atomic             Coordinates (Angstroms)
 Number     Number       Type             X           Y           Z
 ---------------------------------------------------------------------
      1         15           0        1.297170    0.690759   -0.869353
      2         15           0       -1.297309    0.690784    0.869434
      3          8           0        1.511423    3.344462   -0.420256
      4          8           0       -1.511681    3.344439    0.420100
      5          6           0        2.705748    1.336856    0.103581
      6          6           0        3.835261    0.682809    0.650866
      7          6           0        4.886796    1.488285    1.138689
      8          1           0        5.757865    0.996824    1.581835
      9          6           0        4.807544    2.887495    1.109701
     10          1           0        5.635056    3.482803    1.508545
     11          6           0        3.673265    3.541165    0.610707
     12          1           0        3.585025    4.630577    0.600999
     13          6           0        2.631929    2.749830    0.114991
     14          6           0        0.465775    2.365374   -0.612655
     15          1           0       -0.107755    2.668810   -1.503150
     16          6           0       -0.465987    2.365415    0.612587
     17          1           0        0.107526    2.668964    1.503054
     18          6           0       -2.632128    2.749704   -0.115158
     19          6           0       -3.673462    3.540933   -0.611044
     20          1           0       -3.585288    4.630351   -0.601423
     21          6           0       -4.807647    2.887149   -1.110107
     22          1           0       -5.635148    3.482373   -1.509099
     23          6           0       -4.886794    1.487931   -1.139018
     24          1           0       -5.757768    0.996377   -1.582247
     25          6           0       -3.835256    0.682564   -0.651021
     26          6           0       -2.705861    1.336729   -0.103640
     27          6           0        1.874736    0.672229   -2.678979
     28          6           0        0.669907    0.194564   -3.510454
     29          1           0        0.953404    0.184709   -4.578700
     30          1           0       -0.198633    0.870684   -3.403848
     31          1           0        0.369393   -0.824532   -3.216893
     32          6           0        2.329255    2.072246   -3.130684
     33          1           0        3.165445    2.452844   -2.521551
     34          1           0        1.516210    2.816616   -3.115162
     35          1           0        2.685328    1.991058   -4.173959
     36          6           0        3.057558   -0.309618   -2.784240
     37          1           0        3.357500   -0.380625   -3.845984
     38          1           0        2.784732   -1.314730   -2.427429
     39          1           0        3.927206    0.052006   -2.209977
     40          6           0       -1.874913    0.672456    2.679050
     41          6           0       -3.057622   -0.309511    2.784449
     42          1           0       -2.784686   -1.314641    2.427774
     43          1           0       -3.357550   -0.380406    3.846205
     44          1           0       -3.927314    0.051935    2.210143
     45          6           0       -2.329600    2.072495    3.130512
     46          1           0       -2.685667    1.991448    4.173800
     47          1           0       -3.165830    2.452889    2.521306
     48          1           0       -1.516639    2.816954    3.114859
     49          6           0       -0.670045    0.195075    3.510635
     50          1           0        0.198417    0.871279    3.403925
     51          1           0       -0.369408   -0.824040    3.217269
     52          1           0       -0.953561    0.185378    4.578877
     53         46           0       -0.000023   -0.976081    0.000128
     54         17           0       -0.918604   -2.691579    1.396468
     55         17           0        0.918694   -2.691658   -1.396020
     56          6           0        4.092381   -3.595328    0.986856
     57          6           0        5.154489   -2.869583    0.424976
     58          6           0        5.074432   -1.476865    0.313561
     59          6           0        3.923274   -0.793135    0.757132
     60          6           0        2.872296   -1.531582    1.336109
     61          6           0        2.950575   -2.924424    1.442667
     62          1           0        4.150727   -4.686222    1.056103
     63          1           0        6.044074   -3.392301    0.058359
     64          1           0        5.891443   -0.910901   -0.147609
     65          1           0        1.983841   -1.010242    1.710966
     66          1           0        2.098027   -3.473597    1.852766
     67          6           0       -4.091844   -3.595605   -0.986969
     68          6           0       -2.950014   -2.924587   -1.442554
     69          6           0       -2.871914   -1.531735   -1.336019
     70          6           0       -3.923099   -0.793393   -0.757282
     71          6           0       -5.074272   -1.477237   -0.313929
     72          6           0       -5.154151   -2.869967   -0.425329
     73          1           0       -4.150051   -4.686508   -1.056200
     74          1           0       -2.097317   -3.473678   -1.852450
     75          1           0       -1.983423   -1.010309   -1.710671
     76          1           0       -5.891441   -0.911352    0.147057
     77          1           0       -6.043753   -3.392775   -0.058882
 ---------------------------------------------------------------------

 SCF Done:  E(RPBE1PBE) =  -3197.29433626     A.U. after    1 cycles

 The electronic state is 1-A.
 Alpha  occ. eigenvalues -- -101.61909-101.61908 -77.27222 -77.27222 -19.27267
 Alpha  occ. eigenvalues --  -19.27267 -10.32546 -10.32523 -10.31936 -10.31936
 Alpha  occ. eigenvalues --  -10.27393 -10.27393 -10.27203 -10.27203 -10.26636
 Alpha  occ. eigenvalues --  -10.26636 -10.25914 -10.25914 -10.25208 -10.25208
 Alpha  occ. eigenvalues --  -10.24634 -10.24634 -10.24405 -10.24405 -10.23187
 Alpha  occ. eigenvalues --  -10.23187 -10.23174 -10.23174 -10.22845 -10.22845
 Alpha  occ. eigenvalues --  -10.22779 -10.22778 -10.22516 -10.22516 -10.22372
 Alpha  occ. eigenvalues --  -10.22371 -10.22116 -10.22115 -10.21554 -10.21554
 Alpha  occ. eigenvalues --   -9.44435  -9.44435  -7.17629  -7.17629  -7.17157
 Alpha  occ. eigenvalues --   -7.17157  -7.17114  -7.17114  -6.66495  -6.66495
 Alpha  occ. eigenvalues --   -4.80136  -4.80136  -4.79986  -4.79986  -4.79824
 Alpha  occ. eigenvalues --   -4.79824  -3.53423  -2.21211  -2.20961  -2.17696
 Alpha  occ. eigenvalues --   -1.13371  -1.12256  -0.90990  -0.90863  -0.87608
 Alpha  occ. eigenvalues --   -0.87466  -0.86233  -0.85660  -0.83339  -0.81543
 Alpha  occ. eigenvalues --   -0.80457  -0.79525  -0.79282  -0.76401  -0.76342
 Alpha  occ. eigenvalues --   -0.76049  -0.74924  -0.74800  -0.74130  -0.72687
 Alpha  occ. eigenvalues --   -0.71883  -0.71873  -0.71217  -0.71211  -0.68499
 Alpha  occ. eigenvalues --   -0.66487  -0.64849  -0.64408  -0.63839  -0.63116
 Alpha  occ. eigenvalues --   -0.61625  -0.61378  -0.60357  -0.59723  -0.57557
 Alpha  occ. eigenvalues --   -0.56469  -0.55464  -0.54429  -0.53660  -0.53362
 Alpha  occ. eigenvalues --   -0.51905  -0.51575  -0.51397  -0.50524  -0.50135
 Alpha  occ. eigenvalues --   -0.48835  -0.48140  -0.47625  -0.47230  -0.46856
 Alpha  occ. eigenvalues --   -0.46846  -0.46404  -0.46303  -0.46109  -0.45933
 Alpha  occ. eigenvalues --   -0.45217  -0.44560  -0.44395  -0.43742  -0.43739
 Alpha  occ. eigenvalues --   -0.43055  -0.42887  -0.42800  -0.42048  -0.41663
 Alpha  occ. eigenvalues --   -0.41128  -0.41054  -0.40835  -0.40746  -0.39869
 Alpha  occ. eigenvalues --   -0.39669  -0.39032  -0.38849  -0.38653  -0.38531
 Alpha  occ. eigenvalues --   -0.38465  -0.38205  -0.37639  -0.36959  -0.36789
 Alpha  occ. eigenvalues --   -0.36403  -0.36069  -0.35816  -0.35791  -0.35620
 Alpha  occ. eigenvalues --   -0.35361  -0.35354  -0.35268  -0.34815  -0.34688
 Alpha  occ. eigenvalues --   -0.34017  -0.33161  -0.32689  -0.32335  -0.30230
 Alpha  occ. eigenvalues --   -0.30189  -0.29240  -0.29196  -0.28154  -0.26940
 Alpha  occ. eigenvalues --   -0.26625  -0.26138  -0.25548  -0.24884  -0.24867
 Alpha  occ. eigenvalues --   -0.24795  -0.24400  -0.23907  -0.23899
 Alpha virt. eigenvalues --   -0.08936  -0.05774  -0.05428  -0.03377  -0.03314
 Alpha virt. eigenvalues --   -0.01975  -0.00953  -0.00284   0.00561   0.00657
 Alpha virt. eigenvalues --    0.00694   0.01337   0.02510   0.03900   0.04036

 Mulliken charges:
               1
     1  P    0.160543
     2  P    0.160538
     3  O   -0.228620
     4  O   -0.228621
     5  C   -0.076283
     6  C    0.092175
     7  C   -0.269248
     8  H    0.143215
     9  C   -0.056756
    10  H    0.127277
    11  C   -0.338406
    12  H    0.129204
    13  C    0.216998
    14  C    0.060119
    15  H    0.140642
    16  C    0.060081
    17  H    0.140645
    18  C    0.216993
    19  C   -0.338402
    20  H    0.129205
    21  C   -0.056761
    22  H    0.127277
    23  C   -0.269252
    24  H    0.143216
    25  C    0.092183
    26  C   -0.076291
    27  C    0.037693
    28  C   -0.385259
    29  H    0.131722
    30  H    0.117776
    31  H    0.181169
    32  C   -0.367845
    33  H    0.143829
    34  H    0.127015
    35  H    0.133962
    36  C   -0.405938
    37  H    0.124306
    38  H    0.182818
    39  H    0.127062
    40  C    0.037681
    41  C   -0.405937
    42  H    0.182817
    43  H    0.124305
    44  H    0.127066
    45  C   -0.367842
    46  H    0.133962
    47  H    0.143827
    48  H    0.127020
    49  C   -0.385276
    50  H    0.117776
    51  H    0.181170
    52  H    0.131723
    53  Pd  -0.040550
    54  Cl  -0.416078
    55  Cl  -0.416073
    56  C   -0.103456
    57  C   -0.109571
    58  C   -0.242040
    59  C    0.186674
    60  C   -0.165912
    61  C   -0.112475
    62  H    0.118417
    63  H    0.115128
    64  H    0.128005
    65  H    0.227010
    66  H    0.145384
    67  C   -0.103448
    68  C   -0.112514
    69  C   -0.165884
    70  C    0.186646
    71  C   -0.242019
    72  C   -0.109584
    73  H    0.118418
    74  H    0.145388
    75  H    0.227130
    76  H    0.128004
    77  H    0.115128
 Sum of Mulliken charges =  -0.00000

 Dipole moment (field-independent basis, Debye):
    X=             -0.0002    Y=              7.6525    Z=             -0.0007  Tot=              7.6525
 Quadrupole moment (field-independent basis, Debye-Ang):
   XX=           -252.4566   YY=           -288.5864   ZZ=           -281.0084
   XY=              0.0002   XZ=             -1.1673   YZ=              0.0018

 Summary of Natural Population Analysis:

                                       Natural Population
                Natural  -----------------------------------------------
    Atom  No    Charge         Core      Valence    Rydberg      Total
 -----------------------------------------------------------------------
      P    1    1.15479      9.99558     3.79829    0.05135    13.84521
      P    2    1.15479      9.99558     3.79829    0.05135    13.84521
      O    3   -0.45199      1.99977     6.42802    0.02421     8.45199
      O    4   -0.45200      1.99977     6.42802    0.02421     8.45200
      C    5   -0.43660      1.99882     4.40533    0.03244     6.43660
      C    6    0.01424      1.99902     3.96300    0.02373     5.98576
      C    7   -0.22957      1.99914     4.21276    0.01767     6.22957
      H    8    0.23164      0.00000     0.76713    0.00123     0.76836
      C    9   -0.16469      1.99924     4.14795    0.01750     6.16469
      H   10    0.22540      0.00000     0.77352    0.00108     0.77460
      C   11   -0.27422      1.99906     4.25642    0.01873     6.27422
      H   12    0.23851      0.00000     0.76021    0.00128     0.76149
      C   13    0.29580      1.99871     3.68118    0.02430     5.70420
      C   14   -0.23319      1.99917     4.20123    0.03278     6.23319
      H   15    0.24373      0.00000     0.75325    0.00301     0.75627
      C   16   -0.23318      1.99917     4.20123    0.03278     6.23318
      H   17    0.24373      0.00000     0.75325    0.00301     0.75627
      C   18    0.29580      1.99871     3.68118    0.02430     5.70420
      C   19   -0.27422      1.99906     4.25643    0.01873     6.27422
      H   20    0.23851      0.00000     0.76021    0.00128     0.76149
      C   21   -0.16468      1.99924     4.14795    0.01750     6.16468
      H   22    0.22540      0.00000     0.77352    0.00108     0.77460
      C   23   -0.22957      1.99914     4.21276    0.01767     6.22957
      H   24    0.23164      0.00000     0.76713    0.00123     0.76836
      C   25    0.01424      1.99902     3.96300    0.02373     5.98576
      C   26   -0.43661      1.99882     4.40534    0.03244     6.43661
      C   27   -0.27547      1.99946     4.24804    0.02798     6.27547
      C   28   -0.64563      1.99938     4.63409    0.01216     6.64563
      H   29    0.22427      0.00000     0.77409    0.00164     0.77573
      H   30    0.20673      0.00000     0.79204    0.00123     0.79327
      H   31    0.26066      0.00000     0.73804    0.00129     0.73934
      C   32   -0.63021      1.99939     4.61719    0.01363     6.63021
      H   33    0.22276      0.00000     0.77580    0.00144     0.77724
      H   34    0.21377      0.00000     0.78494    0.00129     0.78623
      H   35    0.22608      0.00000     0.77216    0.00176     0.77392
      C   36   -0.64992      1.99938     4.63717    0.01338     6.64992
      H   37    0.21959      0.00000     0.77872    0.00168     0.78041
      H   38    0.26659      0.00000     0.73213    0.00128     0.73341
      H   39    0.21483      0.00000     0.78368    0.00149     0.78517
      C   40   -0.27547      1.99946     4.24804    0.02798     6.27547
      C   41   -0.64992      1.99938     4.63717    0.01338     6.64992
      H   42    0.26659      0.00000     0.73213    0.00128     0.73341
      H   43    0.21959      0.00000     0.77872    0.00168     0.78041
      H   44    0.21483      0.00000     0.78368    0.00149     0.78517
      C   45   -0.63021      1.99939     4.61719    0.01363     6.63021
      H   46    0.22608      0.00000     0.77216    0.00176     0.77392
      H   47    0.22276      0.00000     0.77580    0.00144     0.77724
      H   48    0.21378      0.00000     0.78494    0.00129     0.78622
      C   49   -0.64563      1.99938     4.63408    0.01216     6.64563
      H   50    0.20673      0.00000     0.79204    0.00123     0.79327
      H   51    0.26066      0.00000     0.73805    0.00129     0.73934
      H   52    0.22427      0.00000     0.77409    0.00164     0.77573
     Pd   53   -0.23267     35.98761    10.21709    0.02796    46.23267
     Cl   54   -0.42406      9.99964     7.41518    0.00925    17.42406
     Cl   55   -0.42406      9.99964     7.41518    0.00925    17.42406
      C   56   -0.19830      1.99922     4.18129    0.01779     6.19830
      C   57   -0.20977      1.99922     4.19225    0.01830     6.20977
      C   58   -0.20533      1.99913     4.18831    0.01789     6.20533
      C   59   -0.08432      1.99906     4.06432    0.02094     6.08432
      C   60   -0.18012      1.99912     4.16174    0.01926     6.18012
      C   61   -0.18069      1.99921     4.16364    0.01784     6.18069
      H   62    0.22042      0.00000     0.77841    0.00117     0.77958
      H   63    0.21800      0.00000     0.78082    0.00118     0.78200
      H   64    0.21755      0.00000     0.78108    0.00137     0.78245
      H   65    0.23050      0.00000     0.76704    0.00246     0.76950
      H   66    0.24453      0.00000     0.75426    0.00122     0.75547
      C   67   -0.19830      1.99922     4.18129    0.01779     6.19830
      C   68   -0.18069      1.99921     4.16364    0.01784     6.18069
      C   69   -0.18012      1.99912     4.16175    0.01926     6.18012
      C   70   -0.08431      1.99906     4.06431    0.02094     6.08431
      C   71   -0.20533      1.99913     4.18831    0.01789     6.20533
      C   72   -0.20977      1.99922     4.19224    0.01830     6.20977
      H   73    0.22042      0.00000     0.77841    0.00117     0.77958
      H   74    0.24454      0.00000     0.75425    0.00122     0.75546
      H   75    0.23050      0.00000     0.76704    0.00246     0.76950
      H   76    0.21755      0.00000     0.78108    0.00137     0.78245
      H   77    0.21800      0.00000     0.78082    0.00118     0.78200
 =======================================================================
   * Total *   -0.00000    147.94903   217.10655    0.94442   366.00000

 Normal termination of Gaussian 16 at Tue Nov  2 12:50:49 2021.
