 Gaussian 16, Revision B.01,

 ----------------------------------------------------------------------
 # PBE1PBE/def2TZVP int=(grid=ultrafine) empiricaldispersion=GD3BJ nmr=
 giao
 ----------------------------------------------------------------------

 -----
 title
 -----
 Symbolic Z-matrix:
 Charge =  0 Multiplicity = 1

 SCF Done:  E(RPBE1PBE) =  -2149.10503682     A.U. after   14 cycles

      1  P    Isotropic =   272.7876   Anisotropy =   111.0895

      2  P    Isotropic =   272.7901   Anisotropy =   111.1099

      3  O    Isotropic =   148.8980   Anisotropy =    90.0940

      4  O    Isotropic =   148.8968   Anisotropy =    90.0962

      5  C    Isotropic =    58.4823   Anisotropy =   135.7222

      6  C    Isotropic =    29.0275   Anisotropy =   192.2278

      7  C    Isotropic =    57.4442   Anisotropy =   157.0435

      8  H    Isotropic =    24.1945   Anisotropy =     8.0166

      9  C    Isotropic =    47.9724   Anisotropy =   185.3624

     10  H    Isotropic =    23.7551   Anisotropy =     4.0941

     11  C    Isotropic =    69.5552   Anisotropy =   149.7104

     12  H    Isotropic =    24.1575   Anisotropy =     6.7856

     13  C    Isotropic =    12.3741   Anisotropy =   121.8320

     14  C    Isotropic =    92.6324   Anisotropy =    55.5645

     15  H    Isotropic =    26.4149   Anisotropy =     7.2368

     16  C    Isotropic =    92.6303   Anisotropy =    55.5642

     17  H    Isotropic =    26.4149   Anisotropy =     7.2364

     18  C    Isotropic =    12.3742   Anisotropy =   121.8340

     19  C    Isotropic =    69.5552   Anisotropy =   149.7104

     20  H    Isotropic =    24.1575   Anisotropy =     6.7856

     21  C    Isotropic =    47.9720   Anisotropy =   185.3628

     22  H    Isotropic =    23.7551   Anisotropy =     4.0942

     23  C    Isotropic =    57.4445   Anisotropy =   157.0445

     24  H    Isotropic =    24.1944   Anisotropy =     8.0164

     25  C    Isotropic =    29.0274   Anisotropy =   192.2276

     26  C    Isotropic =    58.4836   Anisotropy =   135.7208

     27  C    Isotropic =   147.2772   Anisotropy =    16.4666

     28  C    Isotropic =   157.3860   Anisotropy =    38.4077

     29  H    Isotropic =    30.7627   Anisotropy =    10.4884

     30  H    Isotropic =    30.5373   Anisotropy =     6.9846

     31  H    Isotropic =    30.2658   Anisotropy =     7.8793

     32  C    Isotropic =   158.5936   Anisotropy =    37.9543

     33  H    Isotropic =    30.7790   Anisotropy =     4.4661

     34  H    Isotropic =    30.4487   Anisotropy =     6.5509

     35  H    Isotropic =    31.0732   Anisotropy =    11.4899

     36  C    Isotropic =   159.6975   Anisotropy =    37.5051

     37  H    Isotropic =    31.2113   Anisotropy =    10.5062

     38  H    Isotropic =    31.1914   Anisotropy =     7.5675

     39  H    Isotropic =    31.0681   Anisotropy =     7.6426

     40  C    Isotropic =   147.2785   Anisotropy =    16.4644

     41  C    Isotropic =   159.6994   Anisotropy =    37.5055

     42  H    Isotropic =    31.1912   Anisotropy =     7.5669

     43  H    Isotropic =    31.2112   Anisotropy =    10.5066

     44  H    Isotropic =    31.0682   Anisotropy =     7.6418

     45  C    Isotropic =   158.5925   Anisotropy =    37.9538

     46  H    Isotropic =    31.0731   Anisotropy =    11.4900

     47  H    Isotropic =    30.7788   Anisotropy =     4.4661

     48  H    Isotropic =    30.4485   Anisotropy =     6.5502

     49  C    Isotropic =   157.3874   Anisotropy =    38.4080

     50  H    Isotropic =    30.5373   Anisotropy =     6.9841

     51  H    Isotropic =    30.2659   Anisotropy =     7.8794

     52  H    Isotropic =    30.7626   Anisotropy =    10.4886

     53  C    Isotropic =    52.9485   Anisotropy =   185.8052

     54  C    Isotropic =    51.7431   Anisotropy =   185.3246

     55  C    Isotropic =    50.6902   Anisotropy =   173.4148

     56  C    Isotropic =    35.8528   Anisotropy =   193.4059

     57  C    Isotropic =    47.4070   Anisotropy =   178.5453

     58  C    Isotropic =    51.6826   Anisotropy =   185.5283

     59  H    Isotropic =    23.8290   Anisotropy =     4.6548

     60  H    Isotropic =    23.7231   Anisotropy =     4.9243

     61  H    Isotropic =    23.6759   Anisotropy =     8.5616

     62  H    Isotropic =    23.2539   Anisotropy =     7.6486

     63  H    Isotropic =    23.7121   Anisotropy =     7.1742

     64  C    Isotropic =    52.9482   Anisotropy =   185.8049

     65  C    Isotropic =    51.6828   Anisotropy =   185.5276

     66  C    Isotropic =    47.4058   Anisotropy =   178.5460

     67  C    Isotropic =    35.8537   Anisotropy =   193.4029

     68  C    Isotropic =    50.6923   Anisotropy =   173.4126

     69  C    Isotropic =    51.7430   Anisotropy =   185.3239

     70  H    Isotropic =    23.8290   Anisotropy =     4.6553

     71  H    Isotropic =    23.7121   Anisotropy =     7.1750

     72  H    Isotropic =    23.2536   Anisotropy =     7.6482

     73  H    Isotropic =    23.6758   Anisotropy =     8.5615

     74  H    Isotropic =    23.7231   Anisotropy =     4.9241

 Normal termination of Gaussian 16 at Tue Nov  2 12:34:35 2021.
 Gaussian 16:  ES64L-G16RevB.01 20-Dec-2017

 ----------------------------------------------------------------------
 # PBE1PBE/def2TZVP int=(grid=ultrafine) empiricaldispersion=GD3BJ pop=
 nbo guess=read geom=check
 ----------------------------------------------------------------------

 -----
 title
 -----
 Structure from the checkpoint file:  "SSSS-Ph-BIBOP_1_SPE_NoPd.chk"
 Charge =  0 Multiplicity = 1

                         Standard orientation:
 ---------------------------------------------------------------------
 Center     Atomic      Atomic             Coordinates (Angstroms)
 Number     Number       Type             X           Y           Z
 ---------------------------------------------------------------------
      1         15           0       -1.280067   -0.213722   -0.894317
      2         15           0        1.280198   -0.213872    0.894466
      3          8           0       -1.502998   -2.867454   -0.449632
      4          8           0        1.503237   -2.867498    0.449203
      5          6           0       -2.707253   -0.859877    0.051072
      6          6           0       -3.847167   -0.205860    0.576388
      7          6           0       -4.907968   -1.011364    1.043671
      8          1           0       -5.787467   -0.519928    1.469871
      9          6           0       -4.828173   -2.410572    1.016135
     10          1           0       -5.663267   -3.005903    1.398814
     11          6           0       -3.684431   -3.064215    0.539193
     12          1           0       -3.596022   -4.153627    0.531127
     13          6           0       -2.633673   -2.272852    0.063820
     14          6           0       -0.453812   -1.888357   -0.621650
     15          1           0        0.136881   -2.191738   -1.500873
     16          6           0        0.454009   -1.888482    0.621434
     17          1           0       -0.136668   -2.192086    1.500590
     18          6           0        2.633857   -2.272733   -0.064184
     19          6           0        3.684612   -3.063934   -0.539830
     20          1           0        3.596264   -4.153352   -0.531993
     21          6           0        4.828264   -2.410122   -1.016758
     22          1           0        5.663347   -3.005324   -1.399664
     23          6           0        4.907962   -1.010902   -1.044037
     24          1           0        5.787370   -0.519323   -1.470258
     25          6           0        3.847158   -0.205563   -0.576475
     26          6           0        2.707357   -0.859758   -0.051146
     27          6           0       -1.822424   -0.195073   -2.714803
     28          6           0       -0.601694    0.282642   -3.522721
     29          1           0       -0.864418    0.292568   -4.596265
     30          1           0        0.264614   -0.393489   -3.399334
     31          1           0       -0.306928    1.301717   -3.223321
     32          6           0       -2.268101   -1.595058   -3.175330
     33          1           0       -3.115949   -1.975692   -2.582555
     34          1           0       -1.455512   -2.339432   -3.144090
     35          1           0       -2.603871   -1.513800   -4.225310
     36          6           0       -3.002980    0.786786   -2.842922
     37          1           0       -3.282272    0.857864   -3.910280
     38          1           0       -2.737123    1.791874   -2.480822
     39          1           0       -3.883603    0.425129   -2.285658
     40          6           0        1.822593   -0.195663    2.714946
     41          6           0        3.003039    0.786292    2.843329
     42          1           0        2.737076    1.791447    2.481493
     43          1           0        3.282316    0.857116    3.910708
     44          1           0        3.883705    0.424880    2.285977
     45          6           0        2.268434   -1.595734    3.175051
     46          1           0        2.604200   -1.514756    4.225055
     47          1           0        3.116322   -1.976091    2.582155
     48          1           0        1.455928   -2.340189    3.143585
     49          6           0        0.601825    0.281669    3.523036
     50          1           0       -0.264407   -0.394525    3.399458
     51          1           0        0.306937    1.300804    3.223961
     52          1           0        0.864567    0.291295    4.596578
     53          6           0       -4.110743    4.072255    0.907606
     54          6           0       -5.161755    3.346552    0.325184
     55          6           0       -5.079556    1.953841    0.215252
     56          6           0       -3.937220    1.270077    0.681023
     57          6           0       -2.897667    2.008482    1.280325
     58          6           0       -2.977995    3.401317    1.385434
     59          1           0       -4.170418    5.163146    0.975779
     60          1           0       -6.044060    3.869297   -0.058585
     61          1           0       -5.887470    1.387910   -0.261715
     62          1           0       -2.016652    1.487114    1.672309
     63          1           0       -2.133560    3.950460    1.812028
     64          6           0        4.110227    4.072627   -0.907105
     65          6           0        2.977447    3.401644   -1.384795
     66          6           0        2.897290    2.008785   -1.279886
     67          6           0        3.937050    1.270400   -0.680917
     68          6           0        5.079409    1.954211   -0.215275
     69          6           0        5.161439    3.346948   -0.325014
     70          1           0        4.169769    5.163535   -0.975124
     71          1           0        2.132862    3.950765   -1.811117
     72          1           0        2.016232    1.487387   -1.671734
     73          1           0        5.887482    1.388292    0.261438
     74          1           0        6.043767    3.869729    0.058654
 ---------------------------------------------------------------------

 SCF Done:  E(RPBE1PBE) =  -2149.10503682     A.U. after    1 cycles

 The electronic state is 1-A.
 Alpha  occ. eigenvalues --  -77.19559 -77.19559 -19.24369 -19.24369 -10.29351
 Alpha  occ. eigenvalues --  -10.29351 -10.29240 -10.29217 -10.25329 -10.25329
 Alpha  occ. eigenvalues --  -10.24777 -10.24777 -10.24381 -10.24381 -10.24000
 Alpha  occ. eigenvalues --  -10.24000 -10.23884 -10.23884 -10.23368 -10.23368
 Alpha  occ. eigenvalues --  -10.23305 -10.23305 -10.23272 -10.23272 -10.23235
 Alpha  occ. eigenvalues --  -10.23235 -10.23139 -10.23139 -10.23078 -10.23078
 Alpha  occ. eigenvalues --  -10.23024 -10.23024 -10.21953 -10.21953 -10.21463
 Alpha  occ. eigenvalues --  -10.21463 -10.21060 -10.21060  -6.59206  -6.59206
 Alpha  occ. eigenvalues --   -4.72821  -4.72821  -4.72732  -4.72731  -4.72329
 Alpha  occ. eigenvalues --   -4.72329  -1.10458  -1.09369  -0.89534  -0.89478
 Alpha  occ. eigenvalues --   -0.87219  -0.87099  -0.83937  -0.83692  -0.81249
 Alpha  occ. eigenvalues --   -0.80411  -0.78750  -0.77365  -0.77238  -0.76674
 Alpha  occ. eigenvalues --   -0.76597  -0.75005  -0.73913  -0.70779  -0.70778
 Alpha  occ. eigenvalues --   -0.70523  -0.70217  -0.69685  -0.66101  -0.64959
 Alpha  occ. eigenvalues --   -0.63149  -0.62790  -0.62668  -0.61498  -0.60999
 Alpha  occ. eigenvalues --   -0.60112  -0.59249  -0.58502  -0.55930  -0.55004
 Alpha  occ. eigenvalues --   -0.52990  -0.52773  -0.52376  -0.52008  -0.50555
 Alpha  occ. eigenvalues --   -0.49678  -0.49344  -0.48676  -0.47734  -0.47348
 Alpha  occ. eigenvalues --   -0.46803  -0.46733  -0.46516  -0.45799  -0.45772
 Alpha  occ. eigenvalues --   -0.45259  -0.45114  -0.44948  -0.44616  -0.44038
 Alpha  occ. eigenvalues --   -0.43810  -0.43353  -0.43296  -0.43182  -0.41814
 Alpha  occ. eigenvalues --   -0.41647  -0.40595  -0.40213  -0.39765  -0.39588
 Alpha  occ. eigenvalues --   -0.39291  -0.39214  -0.39067  -0.38452  -0.38371
 Alpha  occ. eigenvalues --   -0.37973  -0.37794  -0.37693  -0.37652  -0.37026
 Alpha  occ. eigenvalues --   -0.35925  -0.35874  -0.35504  -0.35247  -0.34916
 Alpha  occ. eigenvalues --   -0.34789  -0.34714  -0.34574  -0.34554  -0.32486
 Alpha  occ. eigenvalues --   -0.32238  -0.31159  -0.31045  -0.28756  -0.28453
 Alpha  occ. eigenvalues --   -0.27338  -0.26832  -0.26503  -0.26144  -0.23997
 Alpha  occ. eigenvalues --   -0.23868  -0.23023  -0.19960
 Alpha virt. eigenvalues --   -0.04265  -0.03978  -0.01676  -0.01604  -0.01233
 Alpha virt. eigenvalues --   -0.01114   0.01048   0.01192   0.02498   0.03379
 Alpha virt. eigenvalues --    0.03426   0.04002   0.05565   0.05726   0.06179

 Mulliken charges:
               1
     1  P   -0.028570
     2  P   -0.028553
     3  O   -0.234034
     4  O   -0.234035
     5  C   -0.111973
     6  C    0.135194
     7  C   -0.274721
     8  H    0.132661
     9  C   -0.062322
    10  H    0.119275
    11  C   -0.332523
    12  H    0.120802
    13  C    0.227277
    14  C    0.086199
    15  H    0.119581
    16  C    0.086169
    17  H    0.119586
    18  C    0.227284
    19  C   -0.332529
    20  H    0.120803
    21  C   -0.062321
    22  H    0.119275
    23  C   -0.274733
    24  H    0.132662
    25  C    0.135218
    26  C   -0.111992
    27  C    0.061312
    28  C   -0.381577
    29  H    0.127411
    30  H    0.127124
    31  H    0.134205
    32  C   -0.368794
    33  H    0.138776
    34  H    0.123907
    35  H    0.113063
    36  C   -0.396375
    37  H    0.123041
    38  H    0.136102
    39  H    0.135682
    40  C    0.061285
    41  C   -0.396378
    42  H    0.136102
    43  H    0.123041
    44  H    0.135687
    45  C   -0.368791
    46  H    0.113061
    47  H    0.138773
    48  H    0.123912
    49  C   -0.381573
    50  H    0.127120
    51  H    0.134203
    52  H    0.127412
    53  C   -0.113739
    54  C   -0.119510
    55  C   -0.213440
    56  C    0.160964
    57  C   -0.182050
    58  C   -0.137832
    59  H    0.117153
    60  H    0.116822
    61  H    0.132839
    62  H    0.149883
    63  H    0.118197
    64  C   -0.113727
    65  C   -0.137859
    66  C   -0.182018
    67  C    0.160960
    68  C   -0.213429
    69  C   -0.119523
    70  H    0.117153
    71  H    0.118197
    72  H    0.149887
    73  H    0.132837
    74  H    0.116821
 Sum of Mulliken charges =  -0.00000

 Dipole moment (field-independent basis, Debye):
    X=             -0.0001    Y=              0.9627    Z=             -0.0000  Tot=              0.9627
 Quadrupole moment (field-independent basis, Debye-Ang):
   XX=           -223.0711   YY=           -231.6737   ZZ=           -238.5870
   XY=             -0.0003   XZ=              3.0178   YZ=              0.0009

 Summary of Natural Population Analysis:

                                       Natural Population
                Natural  -----------------------------------------------
    Atom  No    Charge         Core      Valence    Rydberg      Total
 -----------------------------------------------------------------------
      P    1    0.78857      9.99825     4.18542    0.02776    14.21143
      P    2    0.78857      9.99825     4.18542    0.02776    14.21143
      O    3   -0.46226      1.99977     6.43846    0.02403     8.46226
      O    4   -0.46226      1.99977     6.43846    0.02403     8.46226
      C    5   -0.40186      1.99887     4.37479    0.02821     6.40186
      C    6   -0.01785      1.99902     3.99494    0.02389     6.01785
      C    7   -0.23476      1.99914     4.21786    0.01776     6.23476
      H    8    0.22398      0.00000     0.77477    0.00125     0.77602
      C    9   -0.18047      1.99924     4.16341    0.01782     6.18047
      H   10    0.22091      0.00000     0.77800    0.00109     0.77909
      C   11   -0.27022      1.99906     4.25235    0.01881     6.27022
      H   12    0.23331      0.00000     0.76537    0.00131     0.76669
      C   13    0.29014      1.99871     3.68678    0.02437     5.70986
      C   14   -0.22092      1.99924     4.18970    0.03198     6.22092
      H   15    0.23333      0.00000     0.76373    0.00294     0.76667
      C   16   -0.22092      1.99924     4.18969    0.03198     6.22092
      H   17    0.23333      0.00000     0.76373    0.00294     0.76667
      C   18    0.29014      1.99871     3.68678    0.02437     5.70986
      C   19   -0.27022      1.99906     4.25236    0.01881     6.27022
      H   20    0.23331      0.00000     0.76537    0.00131     0.76669
      C   21   -0.18047      1.99924     4.16341    0.01782     6.18047
      H   22    0.22091      0.00000     0.77800    0.00109     0.77909
      C   23   -0.23476      1.99914     4.21786    0.01776     6.23476
      H   24    0.22398      0.00000     0.77477    0.00125     0.77602
      C   25   -0.01785      1.99902     3.99494    0.02389     6.01785
      C   26   -0.40187      1.99887     4.37479    0.02821     6.40187
      C   27   -0.27638      1.99949     4.25346    0.02342     6.27638
      C   28   -0.63004      1.99939     4.61850    0.01214     6.63004
      H   29    0.21668      0.00000     0.78146    0.00186     0.78332
      H   30    0.21432      0.00000     0.78446    0.00121     0.78568
      H   31    0.22111      0.00000     0.77764    0.00125     0.77889
      C   32   -0.62989      1.99940     4.61773    0.01277     6.62989
      H   33    0.22280      0.00000     0.77597    0.00123     0.77720
      H   34    0.21375      0.00000     0.78503    0.00122     0.78625
      H   35    0.20616      0.00000     0.79171    0.00213     0.79384
      C   36   -0.63085      1.99939     4.61838    0.01308     6.63085
      H   37    0.21398      0.00000     0.78407    0.00195     0.78602
      H   38    0.22430      0.00000     0.77438    0.00132     0.77570
      H   39    0.22161      0.00000     0.77687    0.00151     0.77839
      C   40   -0.27638      1.99949     4.25346    0.02342     6.27638
      C   41   -0.63085      1.99939     4.61838    0.01308     6.63085
      H   42    0.22430      0.00000     0.77438    0.00132     0.77570
      H   43    0.21398      0.00000     0.78407    0.00195     0.78602
      H   44    0.22161      0.00000     0.77688    0.00151     0.77839
      C   45   -0.62989      1.99940     4.61773    0.01277     6.62989
      H   46    0.20616      0.00000     0.79171    0.00213     0.79384
      H   47    0.22280      0.00000     0.77597    0.00123     0.77720
      H   48    0.21375      0.00000     0.78503    0.00122     0.78625
      C   49   -0.63003      1.99939     4.61850    0.01214     6.63003
      H   50    0.21432      0.00000     0.78447    0.00121     0.78568
      H   51    0.22111      0.00000     0.77764    0.00125     0.77889
      H   52    0.21668      0.00000     0.78146    0.00186     0.78332
      C   53   -0.21572      1.99922     4.19831    0.01819     6.21572
      C   54   -0.21368      1.99922     4.19609    0.01837     6.21368
      C   55   -0.20426      1.99913     4.18721    0.01792     6.20426
      C   56   -0.06035      1.99907     4.04007    0.02122     6.06035
      C   57   -0.18975      1.99911     4.17263    0.01801     6.18975
      C   58   -0.21045      1.99921     4.19346    0.01779     6.21045
      H   59    0.21746      0.00000     0.78138    0.00116     0.78254
      H   60    0.21821      0.00000     0.78062    0.00117     0.78179
      H   61    0.22108      0.00000     0.77755    0.00136     0.77892
      H   62    0.22819      0.00000     0.76959    0.00221     0.77181
      H   63    0.21979      0.00000     0.77898    0.00122     0.78021
      C   64   -0.21572      1.99922     4.19831    0.01819     6.21572
      C   65   -0.21045      1.99921     4.19346    0.01779     6.21045
      C   66   -0.18975      1.99911     4.17263    0.01801     6.18975
      C   67   -0.06035      1.99907     4.04007    0.02122     6.06035
      C   68   -0.20426      1.99913     4.18721    0.01792     6.20426
      C   69   -0.21368      1.99922     4.19609    0.01837     6.21368
      H   70    0.21746      0.00000     0.78138    0.00116     0.78254
      H   71    0.21979      0.00000     0.77898    0.00122     0.78021
      H   72    0.22820      0.00000     0.76959    0.00221     0.77180
      H   73    0.22108      0.00000     0.77756    0.00136     0.77892
      H   74    0.21821      0.00000     0.78062    0.00117     0.78179
 =======================================================================
   * Total *   -0.00000     91.96785   193.20229    0.82986   286.00000

 Normal termination of Gaussian 16 at Tue Nov  2 12:36:44 2021.
