 Gaussian 16, Revision B.01,

 ----------------------------------------------------------------------
 # PBE1PBE/def2TZVP int=(grid=ultrafine) empiricaldispersion=GD3BJ nmr=
 giao
 ----------------------------------------------------------------------

 -----
 title
 -----
 Symbolic Z-matrix:
 Charge =  0 Multiplicity = 1

 SCF Done:  E(RPBE1PBE) =  -2784.79739166     A.U. after   16 cycles

      1  C    Isotropic =    36.6067   Anisotropy =   196.7958

      2  C    Isotropic =    44.0951   Anisotropy =   149.1208

      3  C    Isotropic =    40.7925   Anisotropy =   192.1394

      4  C    Isotropic =    51.2679   Anisotropy =   145.5252

      5  C    Isotropic =    40.6969   Anisotropy =   194.5128

      6  C    Isotropic =    49.3138   Anisotropy =   163.2300

      7  C    Isotropic =    40.8969   Anisotropy =   196.0280

      8  C    Isotropic =    47.1763   Anisotropy =   162.9378

      9  C    Isotropic =    42.8710   Anisotropy =   194.3879

     10  C    Isotropic =    49.5968   Anisotropy =   149.4688

     11  C    Isotropic =    40.4318   Anisotropy =   199.2392

     12  C    Isotropic =    47.0457   Anisotropy =   168.5622

     13  C    Isotropic =    35.5610   Anisotropy =   166.6937

     14  C    Isotropic =   125.9485   Anisotropy =    22.7982

     15  C    Isotropic =   123.4796   Anisotropy =    19.8215

     16  C    Isotropic =   120.3753   Anisotropy =    19.1239

     17  C    Isotropic =    30.7774   Anisotropy =   155.4992

     18  C    Isotropic =   157.8945   Anisotropy =    23.5827

     19  C    Isotropic =   149.6094   Anisotropy =    41.6509

     20  C    Isotropic =   162.0695   Anisotropy =    28.5476

     21  C    Isotropic =   164.6506   Anisotropy =    36.4949

     22  C    Isotropic =   171.3675   Anisotropy =    21.5811

     23  C    Isotropic =    40.7979   Anisotropy =   119.9945

     24  C    Isotropic =    40.2990   Anisotropy =   137.7004

     25  C    Isotropic =    32.1889   Anisotropy =   147.3729

     26  C    Isotropic =    46.4728   Anisotropy =   132.8227

     27  C    Isotropic =   167.7695   Anisotropy =    19.9733

     28  C    Isotropic =   168.1316   Anisotropy =    17.1834

     29  C    Isotropic =    35.0975   Anisotropy =   211.0444

     30  C    Isotropic =    41.5501   Anisotropy =   198.7040

     31  C    Isotropic =    50.8441   Anisotropy =   187.2229

     32  C    Isotropic =    51.6042   Anisotropy =   188.6600

     33  C    Isotropic =    51.1932   Anisotropy =   187.8244

     34  C    Isotropic =    44.6819   Anisotropy =   188.2995

     35  C    Isotropic =    41.6140   Anisotropy =   204.9810

     36  C    Isotropic =    41.8928   Anisotropy =   185.8693

     37  C    Isotropic =    52.0917   Anisotropy =   184.1790

     38  C    Isotropic =    50.5844   Anisotropy =   188.2856

     39  C    Isotropic =    51.9430   Anisotropy =   184.4497

     40  C    Isotropic =    40.4125   Anisotropy =   203.3621

     41  P    Isotropic =   296.1788   Anisotropy =    74.6289

     42  P    Isotropic =   300.8051   Anisotropy =    54.8926

     43  S    Isotropic =   163.6655   Anisotropy =   167.2230

     44  H    Isotropic =    23.5187   Anisotropy =    11.5650

     45  C    Isotropic =   163.3565   Anisotropy =    38.5309

     46  H    Isotropic =    24.3688   Anisotropy =     7.7187

     47  C    Isotropic =   162.8321   Anisotropy =    41.7567

     48  H    Isotropic =    23.8115   Anisotropy =    12.1201

     49  H    Isotropic =    23.2848   Anisotropy =     8.5021

     50  C    Isotropic =   163.0889   Anisotropy =    39.1567

     51  H    Isotropic =    24.7615   Anisotropy =     6.9016

     52  C    Isotropic =   163.0924   Anisotropy =    38.3597

     53  H    Isotropic =    24.4626   Anisotropy =     8.4856

     54  H    Isotropic =    23.9817   Anisotropy =    13.9779

     55  H    Isotropic =    23.8354   Anisotropy =     3.6630

     56  H    Isotropic =    24.1216   Anisotropy =     6.6090

     57  H    Isotropic =    22.6298   Anisotropy =     8.8577

     58  H    Isotropic =    23.6221   Anisotropy =     6.3812

     59  H    Isotropic =    23.5608   Anisotropy =     8.3343

     60  H    Isotropic =    23.8884   Anisotropy =     3.1432

     61  H    Isotropic =    23.9096   Anisotropy =     5.1060

     62  H    Isotropic =    24.1404   Anisotropy =    12.5739

     63  H    Isotropic =    23.8992   Anisotropy =     6.9565

     64  H    Isotropic =    29.0333   Anisotropy =     8.3856

     65  H    Isotropic =    28.5141   Anisotropy =     8.1360

     66  H    Isotropic =    29.1327   Anisotropy =     9.6190

     67  H    Isotropic =    30.3449   Anisotropy =     8.8737

     68  H    Isotropic =    30.9773   Anisotropy =     6.6174

     69  H    Isotropic =    30.5812   Anisotropy =     7.5817

     70  H    Isotropic =    30.3109   Anisotropy =     5.3020

     71  H    Isotropic =    30.1587   Anisotropy =     8.0364

     72  H    Isotropic =    31.0071   Anisotropy =    10.0211

     73  H    Isotropic =    30.3626   Anisotropy =     8.4890

     74  H    Isotropic =    28.7400   Anisotropy =     3.4883

     75  H    Isotropic =    30.2862   Anisotropy =    10.4191

     76  H    Isotropic =    30.6785   Anisotropy =    10.2583

     77  H    Isotropic =    30.7743   Anisotropy =    11.1379

     78  H    Isotropic =    30.4880   Anisotropy =     8.7479

     79  H    Isotropic =    28.6077   Anisotropy =     8.4790

     80  H    Isotropic =    30.2349   Anisotropy =     8.6116

     81  H    Isotropic =    29.8812   Anisotropy =    10.6984

     82  H    Isotropic =    30.6330   Anisotropy =     7.1964

     83  H    Isotropic =    32.4137   Anisotropy =    23.2961

     84  H    Isotropic =    28.9853   Anisotropy =     9.3060

     85  H    Isotropic =    29.3085   Anisotropy =     6.7673

     86  H    Isotropic =    29.0056   Anisotropy =     9.0210

     87  H    Isotropic =    28.9694   Anisotropy =     7.7856

     88  H    Isotropic =    28.8533   Anisotropy =     8.0445

     89  H    Isotropic =    29.5003   Anisotropy =     8.8670

     90  H    Isotropic =    29.6122   Anisotropy =     5.5962

     91  H    Isotropic =    28.9250   Anisotropy =     5.1303

     92  H    Isotropic =    29.4063   Anisotropy =    10.5467

     93  H    Isotropic =    29.6261   Anisotropy =     8.5757

     94  H    Isotropic =    28.8380   Anisotropy =     7.4968

     95  H    Isotropic =    28.9117   Anisotropy =     9.7010

 Normal termination of Gaussian 16 at Mon Nov  1 19:28:15 2021.
 Gaussian 16:  ES64L-G16RevB.01 20-Dec-2017

 ----------------------------------------------------------------------
 # PBE1PBE/def2TZVP int=(grid=ultrafine) empiricaldispersion=GD3BJ pop=
 nbo guess=read geom=check
 ----------------------------------------------------------------------

 -----
 title
 -----
 Structure from the checkpoint file:  "catASium_T2_2_SPE_NoPd.chk"
 Charge =  0 Multiplicity = 1

                         Standard orientation:
 ---------------------------------------------------------------------
 Center     Atomic      Atomic             Coordinates (Angstroms)
 Number     Number       Type             X           Y           Z
 ---------------------------------------------------------------------
      1          6           0        3.154985   -0.689719   -1.322114
      2          6           0        4.116993   -0.062889   -0.505711
      3          6           0        5.480325   -0.354325   -0.657186
      4          6           0        5.859816   -1.290810   -1.638171
      5          6           0        4.916333   -1.938616   -2.450612
      6          6           0        3.552780   -1.631547   -2.281061
      7          6           0        1.035064   -1.684229    0.277503
      8          6           0        0.356034   -2.845909   -0.117953
      9          6           0        0.089792   -3.873393    0.805686
     10          6           0        0.521300   -3.701882    2.130633
     11          6           0        1.223594   -2.552365    2.545052
     12          6           0        1.488277   -1.549304    1.600650
     13          6           0        1.259069    1.236198   -0.259123
     14          6           0        1.945709    2.449223   -0.881612
     15          6           0        1.975945    3.426520    0.339724
     16          6           0        0.429573    3.240259    0.619939
     17          6           0        0.321752    1.694531    0.627097
     18          6           0        0.856146    3.086321   -1.805668
     19          6           0       -0.157954    3.653498   -0.783137
     20          6           0        2.894818    2.967013    1.483641
     21          6           0        2.389492    4.864195   -0.017600
     22          6           0       -0.201549    4.023594    1.762635
     23          6           0       -0.650179    0.844879    1.353567
     24          6           0       -0.633262    0.753298    2.740393
     25          6           0       -2.181885   -0.949090    1.680844
     26          6           0       -1.566029   -0.128269    0.741271
     27          6           0        0.246044    1.439228    3.744998
     28          6           0       -3.113372   -2.126359    1.589303
     29          6           0       -2.797901    1.503972   -1.230741
     30          6           0       -3.391975    2.106882   -0.101166
     31          6           0       -4.049928    3.338008   -0.224566
     32          6           0       -4.120259    3.976476   -1.471112
     33          6           0       -3.540252    3.373452   -2.596383
     34          6           0       -2.880840    2.142420   -2.483711
     35          6           0       -3.284795   -1.341887   -1.340473
     36          6           0       -2.963123   -2.609639   -1.860255
     37          6           0       -3.961120   -3.577432   -2.021710
     38          6           0       -5.292279   -3.275850   -1.695013
     39          6           0       -5.623327   -1.997942   -1.223306
     40          6           0       -4.623964   -1.030638   -1.046579
     41         15           0        1.373065   -0.407083   -1.000602
     42         15           0       -1.935324   -0.121972   -1.075566
     43         16           0       -1.696122   -0.503001    3.297640
     44          1           0        3.805322    0.657377    0.257012
     45          6           0        6.516910    0.319369    0.212648
     46          1           0        6.924811   -1.518757   -1.773686
     47          6           0        5.339471   -2.932836   -3.506268
     48          1           0        2.803844   -2.097577   -2.927117
     49          1           0        0.020456   -2.936541   -1.157576
     50          6           0       -0.648444   -5.118816    0.371605
     51          1           0        0.305580   -4.486441    2.866932
     52          6           0        1.637432   -2.382201    3.987645
     53          1           0        2.029575   -0.646031    1.903295
     54          1           0       -4.887186   -0.032466   -0.683110
     55          1           0       -6.074814   -4.028985   -1.832758
     56          1           0       -6.665187   -1.747813   -0.997599
     57          1           0       -1.935280   -2.815320   -2.171677
     58          1           0       -3.702956   -4.559407   -2.431328
     59          1           0       -2.431148    1.666334   -3.361059
     60          1           0       -4.625109    4.943720   -1.563761
     61          1           0       -3.591902    3.865558   -3.572938
     62          1           0       -3.323477    1.622430    0.877416
     63          1           0       -4.502059    3.800658    0.659081
     64          1           0        0.649445    0.716036    4.475238
     65          1           0        1.099049    1.918768    3.245446
     66          1           0       -0.295868    2.215839    4.314368
     67          1           0       -4.150797   -1.829592    1.363176
     68          1           0       -2.795362   -2.822410    0.799459
     69          1           0       -3.117014   -2.678380    2.543617
     70          1           0       -1.238273    3.687811    1.939831
     71          1           0        0.354051    3.925355    2.708884
     72          1           0       -0.238945    5.096982    1.509266
     73          1           0        2.768545    3.612496    2.371882
     74          1           0        2.706111    1.925336    1.786234
     75          1           0        3.953601    3.043627    1.177031
     76          1           0        2.272058    5.525856    0.859270
     77          1           0        3.455847    4.886036   -0.304091
     78          1           0        1.816246    5.301073   -0.847548
     79          1           0        2.904935    2.247259   -1.380445
     80          1           0        0.420845    2.324361   -2.475283
     81          1           0        1.294945    3.871887   -2.443499
     82          1           0       -0.223093    4.754247   -0.833403
     83          1           0       -1.174305    3.268554   -0.915417
     84          1           0        7.299921    0.804994   -0.396426
     85          1           0        6.062012    1.091520    0.855480
     86          1           0        7.026081   -0.407901    0.871189
     87          1           0        4.907745   -3.931311   -3.313000
     88          1           0        4.987188   -2.619221   -4.504821
     89          1           0        6.435872   -3.039553   -3.546525
     90          1           0        2.454271   -1.648249    4.089068
     91          1           0        0.787439   -2.022071    4.597691
     92          1           0        1.975343   -3.334956    4.429624
     93          1           0       -0.958746   -5.726545    1.237388
     94          1           0       -1.552613   -4.866490   -0.211197
     95          1           0       -0.016457   -5.754606   -0.274956
 ---------------------------------------------------------------------

 SCF Done:  E(RPBE1PBE) =  -2784.79739166     A.U. after    1 cycles

 The electronic state is 1-A.
 Alpha  occ. eigenvalues --  -89.03631 -77.19978 -77.18669 -10.25759 -10.25352
 Alpha  occ. eigenvalues --  -10.24177 -10.23891 -10.23881 -10.23781 -10.23723
 Alpha  occ. eigenvalues --  -10.23636 -10.23601 -10.23545 -10.23500 -10.23472
 Alpha  occ. eigenvalues --  -10.23445 -10.23437 -10.23412 -10.23338 -10.23306
 Alpha  occ. eigenvalues --  -10.23295 -10.23286 -10.23196 -10.23195 -10.23081
 Alpha  occ. eigenvalues --  -10.22901 -10.22641 -10.22636 -10.22538 -10.22459
 Alpha  occ. eigenvalues --  -10.22118 -10.21908 -10.21904 -10.21891 -10.21872
 Alpha  occ. eigenvalues --  -10.21819 -10.21803 -10.21802 -10.21753 -10.21704
 Alpha  occ. eigenvalues --  -10.21659 -10.21625 -10.20943 -10.20844 -10.20706
 Alpha  occ. eigenvalues --  -10.20605 -10.20329  -8.01462  -6.59511  -6.58298
 Alpha  occ. eigenvalues --   -5.95042  -5.94710  -5.94483  -4.73109  -4.73094
 Alpha  occ. eigenvalues --   -4.72649  -4.71889  -4.71876  -4.71453  -0.91000
 Alpha  occ. eigenvalues --   -0.89376  -0.88394  -0.87829  -0.87709  -0.87351
 Alpha  occ. eigenvalues --   -0.80348  -0.79829  -0.79784  -0.79688  -0.78816
 Alpha  occ. eigenvalues --   -0.77984  -0.77297  -0.77047  -0.76870  -0.76678
 Alpha  occ. eigenvalues --   -0.76608  -0.76458  -0.74219  -0.72256  -0.70751
 Alpha  occ. eigenvalues --   -0.70435  -0.69545  -0.69424  -0.69172  -0.68708
 Alpha  occ. eigenvalues --   -0.66875  -0.66318  -0.64749  -0.62934  -0.62795
 Alpha  occ. eigenvalues --   -0.62167  -0.61617  -0.59851  -0.59212  -0.58427
 Alpha  occ. eigenvalues --   -0.58117  -0.58000  -0.55329  -0.54794  -0.54186
 Alpha  occ. eigenvalues --   -0.53171  -0.52523  -0.51484  -0.50648  -0.50419
 Alpha  occ. eigenvalues --   -0.49561  -0.48414  -0.48074  -0.47730  -0.47294
 Alpha  occ. eigenvalues --   -0.47217  -0.46792  -0.46651  -0.46220  -0.46029
 Alpha  occ. eigenvalues --   -0.44611  -0.44579  -0.43927  -0.43901  -0.43649
 Alpha  occ. eigenvalues --   -0.43418  -0.43254  -0.43118  -0.43094  -0.42443
 Alpha  occ. eigenvalues --   -0.42282  -0.42040  -0.42002  -0.41757  -0.41467
 Alpha  occ. eigenvalues --   -0.41059  -0.40856  -0.40769  -0.40692  -0.40361
 Alpha  occ. eigenvalues --   -0.40166  -0.40154  -0.39819  -0.39605  -0.38803
 Alpha  occ. eigenvalues --   -0.38602  -0.38306  -0.38227  -0.38008  -0.37947
 Alpha  occ. eigenvalues --   -0.37685  -0.36925  -0.36676  -0.36668  -0.36088
 Alpha  occ. eigenvalues --   -0.35771  -0.35436  -0.34839  -0.34556  -0.34419
 Alpha  occ. eigenvalues --   -0.34237  -0.34177  -0.33686  -0.33555  -0.33444
 Alpha  occ. eigenvalues --   -0.33203  -0.32821  -0.32505  -0.31436  -0.30665
 Alpha  occ. eigenvalues --   -0.29246  -0.28284  -0.27607  -0.27196  -0.26990
 Alpha  occ. eigenvalues --   -0.26573  -0.26345  -0.25482  -0.24524  -0.24094
 Alpha  occ. eigenvalues --   -0.23745  -0.22457  -0.21142  -0.18492
 Alpha virt. eigenvalues --   -0.03336  -0.03006  -0.02497  -0.01873  -0.01470
 Alpha virt. eigenvalues --   -0.00793  -0.00705  -0.00261   0.00423   0.00846
 Alpha virt. eigenvalues --    0.02703   0.03481   0.04242   0.04728   0.04990

 Mulliken charges:
               1
     1  C    0.240293
     2  C   -0.298327
     3  C    0.207615
     4  C   -0.293706
     5  C    0.243957
     6  C   -0.366860
     7  C    0.217813
     8  C   -0.324783
     9  C    0.188001
    10  C   -0.255905
    11  C    0.163956
    12  C   -0.206403
    13  C   -0.150794
    14  C    0.153931
    15  C    0.065237
    16  C    0.445396
    17  C   -0.337069
    18  C   -0.256881
    19  C   -0.275199
    20  C   -0.486826
    21  C   -0.418414
    22  C   -0.361102
    23  C    0.087068
    24  C   -0.097705
    25  C    0.119095
    26  C   -0.381957
    27  C   -0.408580
    28  C   -0.329108
    29  C    0.036461
    30  C   -0.161472
    31  C   -0.141746
    32  C   -0.102913
    33  C   -0.130581
    34  C   -0.167208
    35  C    0.147100
    36  C   -0.259032
    37  C   -0.107671
    38  C   -0.108447
    39  C   -0.124028
    40  C   -0.190882
    41  P    0.016109
    42  P    0.047633
    43  S   -0.029686
    44  H    0.108443
    45  C   -0.438164
    46  H    0.099999
    47  C   -0.415495
    48  H    0.105638
    49  H    0.115229
    50  C   -0.415618
    51  H    0.095399
    52  C   -0.444472
    53  H    0.114241
    54  H    0.142702
    55  H    0.120462
    56  H    0.120540
    57  H    0.134311
    58  H    0.121474
    59  H    0.126733
    60  H    0.118951
    61  H    0.117891
    62  H    0.161354
    63  H    0.117059
    64  H    0.143483
    65  H    0.137228
    66  H    0.146854
    67  H    0.143122
    68  H    0.142489
    69  H    0.130501
    70  H    0.138188
    71  H    0.119612
    72  H    0.127155
    73  H    0.131260
    74  H    0.153257
    75  H    0.126165
    76  H    0.125149
    77  H    0.124662
    78  H    0.137335
    79  H    0.143584
    80  H    0.103694
    81  H    0.112001
    82  H    0.101576
    83  H    0.115002
    84  H    0.132066
    85  H    0.130641
    86  H    0.134681
    87  H    0.134468
    88  H    0.133808
    89  H    0.127417
    90  H    0.132451
    91  H    0.134532
    92  H    0.134892
    93  H    0.126048
    94  H    0.125817
    95  H    0.137807
 Sum of Mulliken charges =  -0.00000

 Dipole moment (field-independent basis, Debye):
    X=             -0.8038    Y=             -0.2388    Z=              0.9243  Tot=              1.2480
 Quadrupole moment (field-independent basis, Debye-Ang):
   XX=           -284.7971   YY=           -283.6111   ZZ=           -296.3240
   XY=              2.8878   XZ=              1.9802   YZ=              3.4987

 Summary of Natural Population Analysis:

                                       Natural Population
                Natural  -----------------------------------------------
    Atom  No    Charge         Core      Valence    Rydberg      Total
 -----------------------------------------------------------------------
      C    1   -0.30328      1.99904     4.27382    0.03042     6.30328
      C    2   -0.22521      1.99901     4.20786    0.01834     6.22521
      C    3   -0.01426      1.99915     3.99716    0.01795     6.01426
      C    4   -0.21353      1.99903     4.19819    0.01631     6.21353
      C    5   -0.00881      1.99916     3.99220    0.01745     6.00881
      C    6   -0.21001      1.99902     4.19278    0.01821     6.21001
      C    7   -0.28804      1.99903     4.25611    0.03291     6.28804
      C    8   -0.21927      1.99899     4.20152    0.01877     6.21927
      C    9   -0.01922      1.99913     4.00218    0.01791     6.01922
      C   10   -0.21145      1.99902     4.19755    0.01488     6.21145
      C   11   -0.01043      1.99914     3.99250    0.01878     6.01043
      C   12   -0.20776      1.99897     4.18918    0.01961     6.20776
      C   13   -0.29889      1.99886     4.26909    0.03094     6.29889
      C   14   -0.27495      1.99927     4.25731    0.01836     6.27495
      C   15    0.01301      1.99940     3.96579    0.02180     5.98699
      C   16   -0.05227      1.99926     4.02810    0.02492     6.05227
      C   17   -0.01851      1.99879     3.99237    0.02734     6.01851
      C   18   -0.41300      1.99944     4.39990    0.01367     6.41300
      C   19   -0.42225      1.99937     4.40787    0.01501     6.42225
      C   20   -0.63615      1.99937     4.62444    0.01234     6.63615
      C   21   -0.63328      1.99938     4.62122    0.01269     6.63328
      C   22   -0.63213      1.99937     4.61894    0.01382     6.63213
      C   23   -0.11484      1.99876     4.08822    0.02785     6.11484
      C   24   -0.17684      1.99899     4.14896    0.02889     6.17684
      C   25   -0.17501      1.99903     4.14516    0.03082     6.17501
      C   26   -0.34373      1.99877     4.31142    0.03354     6.34373
      C   27   -0.65830      1.99937     4.64497    0.01395     6.65830
      C   28   -0.66025      1.99936     4.64677    0.01411     6.66025
      C   29   -0.32733      1.99905     4.29503    0.03325     6.32733
      C   30   -0.22520      1.99908     4.20605    0.02007     6.22520
      C   31   -0.21604      1.99921     4.19817    0.01866     6.21604
      C   32   -0.21336      1.99921     4.19592    0.01823     6.21336
      C   33   -0.21184      1.99921     4.19513    0.01750     6.21184
      C   34   -0.20867      1.99910     4.19064    0.01893     6.20867
      C   35   -0.32467      1.99903     4.29465    0.03099     6.32467
      C   36   -0.20852      1.99910     4.18984    0.01958     6.20852
      C   37   -0.21916      1.99920     4.20196    0.01800     6.21916
      C   38   -0.20832      1.99922     4.19083    0.01827     6.20832
      C   39   -0.21418      1.99921     4.19698    0.01799     6.21418
      C   40   -0.20581      1.99909     4.18677    0.01995     6.20581
      P   41    0.85727      9.99746     4.11230    0.03297    14.14273
      P   42    0.85266      9.99773     4.11934    0.03028    14.14734
      S   43    0.42762      9.99872     5.54213    0.03153    15.57238
      H   44    0.21708      0.00000     0.78020    0.00272     0.78292
      C   45   -0.63579      1.99944     4.62475    0.01161     6.63579
      H   46    0.20575      0.00000     0.79270    0.00155     0.79425
      C   47   -0.63498      1.99944     4.62400    0.01154     6.63498
      H   48    0.21716      0.00000     0.78108    0.00176     0.78284
      H   49    0.21574      0.00000     0.78222    0.00204     0.78426
      C   50   -0.63671      1.99943     4.62559    0.01169     6.63671
      H   51    0.20583      0.00000     0.79211    0.00206     0.79417
      C   52   -0.63861      1.99943     4.62695    0.01223     6.63861
      H   53    0.21579      0.00000     0.78086    0.00335     0.78421
      H   54    0.23114      0.00000     0.76672    0.00214     0.76886
      H   55    0.21937      0.00000     0.77946    0.00117     0.78063
      H   56    0.21926      0.00000     0.77946    0.00128     0.78074
      H   57    0.22497      0.00000     0.77328    0.00174     0.77503
      H   58    0.22012      0.00000     0.77860    0.00127     0.77988
      H   59    0.22616      0.00000     0.77222    0.00162     0.77384
      H   60    0.21917      0.00000     0.77968    0.00116     0.78083
      H   61    0.21984      0.00000     0.77893    0.00124     0.78016
      H   62    0.23478      0.00000     0.76271    0.00251     0.76522
      H   63    0.21870      0.00000     0.77997    0.00133     0.78130
      H   64    0.22748      0.00000     0.77108    0.00144     0.77252
      H   65    0.23773      0.00000     0.76085    0.00142     0.76227
      H   66    0.22765      0.00000     0.77085    0.00150     0.77235
      H   67    0.23493      0.00000     0.76321    0.00185     0.76507
      H   68    0.24082      0.00000     0.75699    0.00219     0.75918
      H   69    0.22473      0.00000     0.77392    0.00134     0.77527
      H   70    0.22601      0.00000     0.77263    0.00136     0.77399
      H   71    0.21122      0.00000     0.78718    0.00161     0.78878
      H   72    0.21642      0.00000     0.78229    0.00128     0.78358
      H   73    0.21231      0.00000     0.78622    0.00146     0.78769
      H   74    0.21924      0.00000     0.77945    0.00131     0.78076
      H   75    0.21488      0.00000     0.78360    0.00152     0.78512
      H   76    0.21408      0.00000     0.78461    0.00131     0.78592
      H   77    0.21574      0.00000     0.78301    0.00125     0.78426
      H   78    0.21697      0.00000     0.78187    0.00117     0.78303
      H   79    0.23465      0.00000     0.76345    0.00190     0.76535
      H   80    0.22356      0.00000     0.77470    0.00175     0.77644
      H   81    0.21225      0.00000     0.78627    0.00147     0.78775
      H   82    0.20768      0.00000     0.79080    0.00152     0.79232
      H   83    0.23716      0.00000     0.76036    0.00248     0.76284
      H   84    0.22159      0.00000     0.77733    0.00109     0.77841
      H   85    0.21748      0.00000     0.78143    0.00109     0.78252
      H   86    0.22302      0.00000     0.77584    0.00114     0.77698
      H   87    0.22341      0.00000     0.77546    0.00112     0.77659
      H   88    0.22298      0.00000     0.77592    0.00111     0.77702
      H   89    0.21682      0.00000     0.78222    0.00096     0.78318
      H   90    0.21835      0.00000     0.78063    0.00102     0.78165
      H   91    0.22542      0.00000     0.77279    0.00179     0.77458
      H   92    0.22058      0.00000     0.77837    0.00105     0.77942
      H   93    0.21841      0.00000     0.78065    0.00095     0.78159
      H   94    0.22208      0.00000     0.77661    0.00130     0.77792
      H   95    0.22385      0.00000     0.77499    0.00116     0.77615
 =======================================================================
   * Total *   -0.00000    117.95683   238.99443    1.04873   358.00000

 Normal termination of Gaussian 16 at Mon Nov  1 19:32:39 2021.
