 Gaussian 16, Revision B.01,

 ----------------------------------------------------------------------
 # PBE1PBE/def2TZVP int=(grid=ultrafine) empiricaldispersion=GD3BJ nmr=
 giao
 ----------------------------------------------------------------------

 -----
 title
 -----
 Symbolic Z-matrix:
 Charge =  0 Multiplicity = 1

 SCF Done:  E(RPBE1PBE) =  -2784.79902788     A.U. after   16 cycles

      1  C    Isotropic =    41.0589   Anisotropy =   197.5145

      2  C    Isotropic =    47.5017   Anisotropy =   165.9664

      3  C    Isotropic =    41.0915   Anisotropy =   193.5787

      4  C    Isotropic =    51.7195   Anisotropy =   143.0923

      5  C    Isotropic =    41.9593   Anisotropy =   193.2341

      6  C    Isotropic =    48.2445   Anisotropy =   166.7022

      7  C    Isotropic =    47.8222   Anisotropy =   190.6020

      8  C    Isotropic =    43.7490   Anisotropy =   170.4294

      9  C    Isotropic =    40.3587   Anisotropy =   199.8247

     10  C    Isotropic =    48.6332   Anisotropy =   151.2262

     11  C    Isotropic =    41.9830   Anisotropy =   196.1132

     12  C    Isotropic =    44.3475   Anisotropy =   168.1530

     13  C    Isotropic =    33.9538   Anisotropy =   165.2099

     14  C    Isotropic =   127.3756   Anisotropy =    29.2574

     15  C    Isotropic =   123.6270   Anisotropy =    20.2659

     16  C    Isotropic =   119.9771   Anisotropy =    18.7665

     17  C    Isotropic =    35.6613   Anisotropy =   149.1734

     18  C    Isotropic =   158.6073   Anisotropy =    21.5945

     19  C    Isotropic =   149.2973   Anisotropy =    42.4111

     20  C    Isotropic =   163.7400   Anisotropy =    30.3100

     21  C    Isotropic =   164.8611   Anisotropy =    36.4743

     22  C    Isotropic =   171.0472   Anisotropy =    22.1593

     23  C    Isotropic =    40.2588   Anisotropy =   122.6154

     24  C    Isotropic =    41.6122   Anisotropy =   136.3457

     25  C    Isotropic =    31.5438   Anisotropy =   147.9179

     26  C    Isotropic =    48.4288   Anisotropy =   131.8054

     27  C    Isotropic =   167.7323   Anisotropy =    19.2679

     28  C    Isotropic =   169.2502   Anisotropy =    19.8795

     29  C    Isotropic =    35.9145   Anisotropy =   210.0998

     30  C    Isotropic =    42.0481   Anisotropy =   199.0460

     31  C    Isotropic =    50.5597   Anisotropy =   187.3117

     32  C    Isotropic =    51.3073   Anisotropy =   188.7403

     33  C    Isotropic =    51.2135   Anisotropy =   187.6736

     34  C    Isotropic =    44.3331   Anisotropy =   188.4692

     35  C    Isotropic =    40.4353   Anisotropy =   205.9221

     36  C    Isotropic =    42.2889   Anisotropy =   186.9577

     37  C    Isotropic =    52.0540   Anisotropy =   184.4434

     38  C    Isotropic =    51.0040   Anisotropy =   187.9365

     39  C    Isotropic =    52.1023   Anisotropy =   184.3528

     40  C    Isotropic =    41.3076   Anisotropy =   201.9372

     41  P    Isotropic =   302.5909   Anisotropy =    38.4625

     42  P    Isotropic =   299.5541   Anisotropy =    55.3659

     43  S    Isotropic =   161.9247   Anisotropy =   162.5270

     44  H    Isotropic =    24.3645   Anisotropy =    15.8517

     45  C    Isotropic =   163.3499   Anisotropy =    39.7463

     46  H    Isotropic =    24.3382   Anisotropy =     7.3470

     47  C    Isotropic =   162.8666   Anisotropy =    40.8185

     48  H    Isotropic =    23.7674   Anisotropy =    11.8632

     49  H    Isotropic =    24.3147   Anisotropy =     8.1945

     50  C    Isotropic =   162.7535   Anisotropy =    37.5519

     51  H    Isotropic =    24.4326   Anisotropy =     6.9118

     52  C    Isotropic =   162.9459   Anisotropy =    39.8206

     53  H    Isotropic =    23.3692   Anisotropy =     9.5244

     54  H    Isotropic =    24.0679   Anisotropy =    14.2500

     55  H    Isotropic =    23.8704   Anisotropy =     3.5982

     56  H    Isotropic =    24.1513   Anisotropy =     6.5300

     57  H    Isotropic =    22.8233   Anisotropy =     8.7708

     58  H    Isotropic =    23.6888   Anisotropy =     6.5309

     59  H    Isotropic =    23.4776   Anisotropy =     8.3737

     60  H    Isotropic =    23.8514   Anisotropy =     3.1494

     61  H    Isotropic =    23.8551   Anisotropy =     5.0834

     62  H    Isotropic =    24.1244   Anisotropy =    12.3805

     63  H    Isotropic =    23.8854   Anisotropy =     6.9117

     64  H    Isotropic =    29.0825   Anisotropy =     8.4564

     65  H    Isotropic =    28.6434   Anisotropy =     7.9859

     66  H    Isotropic =    29.1980   Anisotropy =     9.6146

     67  H    Isotropic =    30.5710   Anisotropy =     8.0814

     68  H    Isotropic =    30.5376   Anisotropy =    10.5064

     69  H    Isotropic =    30.7737   Anisotropy =     5.5007

     70  H    Isotropic =    30.3825   Anisotropy =     5.0868

     71  H    Isotropic =    30.2619   Anisotropy =     8.1237

     72  H    Isotropic =    31.0947   Anisotropy =    10.1360

     73  H    Isotropic =    30.8477   Anisotropy =     8.8814

     74  H    Isotropic =    29.6370   Anisotropy =     4.6344

     75  H    Isotropic =    31.1947   Anisotropy =     8.8344

     76  H    Isotropic =    30.8833   Anisotropy =    10.5675

     77  H    Isotropic =    31.0848   Anisotropy =    10.7490

     78  H    Isotropic =    30.6339   Anisotropy =     8.6485

     79  H    Isotropic =    29.0676   Anisotropy =    12.9589

     80  H    Isotropic =    30.2152   Anisotropy =     7.2641

     81  H    Isotropic =    29.8183   Anisotropy =    10.5809

     82  H    Isotropic =    30.6628   Anisotropy =     7.2401

     83  H    Isotropic =    32.4939   Anisotropy =    22.6236

     84  H    Isotropic =    29.1960   Anisotropy =     8.9107

     85  H    Isotropic =    29.5670   Anisotropy =     5.8946

     86  H    Isotropic =    29.1136   Anisotropy =     9.6651

     87  H    Isotropic =    28.7469   Anisotropy =     8.3603

     88  H    Isotropic =    28.7815   Anisotropy =     6.6896

     89  H    Isotropic =    29.3685   Anisotropy =     8.9543

     90  H    Isotropic =    28.7994   Anisotropy =     9.2804

     91  H    Isotropic =    29.4776   Anisotropy =     8.6874

     92  H    Isotropic =    28.7094   Anisotropy =     7.3493

     93  H    Isotropic =    29.3979   Anisotropy =     4.9690

     94  H    Isotropic =    28.7160   Anisotropy =     5.1330

     95  H    Isotropic =    29.1005   Anisotropy =    10.5758

 Normal termination of Gaussian 16 at Mon Nov  1 18:04:27 2021.
 Gaussian 16:  ES64L-G16RevB.01 20-Dec-2017

 ----------------------------------------------------------------------
 # PBE1PBE/def2TZVP int=(grid=ultrafine) empiricaldispersion=GD3BJ pop=
 nbo guess=read geom=check
 ----------------------------------------------------------------------

 -----
 title
 -----
 Structure from the checkpoint file:  "catASium_T2_1_SPE_NoPd.chk"
 Charge =  0 Multiplicity = 1

                         Standard orientation:
 ---------------------------------------------------------------------
 Center     Atomic      Atomic             Coordinates (Angstroms)
 Number     Number       Type             X           Y           Z
 ---------------------------------------------------------------------
      1          6           0        3.125390   -0.671266   -1.397709
      2          6           0        3.924911   -1.584023   -0.685950
      3          6           0        5.303162   -1.671859   -0.940804
      4          6           0        5.861693   -0.827028   -1.917507
      5          6           0        5.080070    0.083640   -2.646875
      6          6           0        3.701074    0.151821   -2.379579
      7          6           0        0.887979   -1.938467   -0.004597
      8          6           0        1.210902   -2.074145    1.357990
      9          6           0        0.803261   -3.210866    2.073215
     10          6           0        0.071698   -4.206851    1.396011
     11          6           0       -0.245983   -4.101490    0.032389
     12          6           0        0.177121   -2.954155   -0.663357
     13          6           0        1.329608    0.999866    0.069631
     14          6           0        2.213162    2.211672   -0.208175
     15          6           0        2.284528    2.860402    1.210632
     16          6           0        0.712210    2.839051    1.379029
     17          6           0        0.407337    1.363960    1.013546
     18          6           0        1.287053    3.194957   -0.996376
     19          6           0        0.281096    3.643264    0.092899
     20          6           0        3.063132    2.006140    2.224360
     21          6           0        2.905422    4.267184    1.230410
     22          6           0        0.109186    3.423983    2.648823
     23          6           0       -0.691019    0.505599    1.507669
     24          6           0       -0.769703    0.115288    2.839787
     25          6           0       -2.435216   -1.107932    1.371311
     26          6           0       -1.669412   -0.186962    0.661559
     27          6           0        0.114039    0.453170    4.005061
     28          6           0       -3.487510   -2.114212    0.992507
     29          6           0       -2.543157    1.978590   -0.975861
     30          6           0       -3.145911    2.425135    0.218930
     31          6           0       -3.631454    3.736460    0.312802
     32          6           0       -3.519232    4.607734   -0.780524
     33          6           0       -2.930543    4.160681   -1.972630
     34          6           0       -2.442711    2.851540   -2.076852
     35          6           0       -3.362214   -0.707548   -1.683572
     36          6           0       -3.150175   -1.928825   -2.350819
     37          6           0       -4.239728   -2.715684   -2.739418
     38          6           0       -5.549022   -2.276202   -2.489273
     39          6           0       -5.763506   -1.040862   -1.862301
     40          6           0       -4.673910   -0.255440   -1.458845
     41         15           0        1.347201   -0.469359   -0.996259
     42         15           0       -1.901822    0.257597   -1.121604
     43         16           0       -2.002119   -1.088563    3.062568
     44          1           0        3.475988   -2.238573    0.067776
     45          6           0        6.163857   -2.668705   -0.198910
     46          1           0        6.937629   -0.889587   -2.124671
     47          6           0        5.684556    0.957011   -3.721064
     48          1           0        3.067394    0.823337   -2.966262
     49          1           0        1.763747   -1.278328    1.869129
     50          6           0        1.099324   -3.344914    3.548446
     51          1           0       -0.263066   -5.090637    1.953765
     52          6           0       -1.036778   -5.174430   -0.680052
     53          1           0       -0.052544   -2.834918   -1.729143
     54          1           0       -4.845242    0.709609   -0.972181
     55          1           0       -6.401812   -2.886002   -2.804652
     56          1           0       -6.783340   -0.680638   -1.691377
     57          1           0       -2.128463   -2.239167   -2.589713
     58          1           0       -4.066057   -3.661417   -3.263004
     59          1           0       -1.992771    2.489881   -3.007725
     60          1           0       -3.890536    5.634899   -0.702322
     61          1           0       -2.843685    4.835779   -2.830118
     62          1           0       -3.218543    1.752152    1.078851
     63          1           0       -4.092477    4.078148    1.245527
     64          1           0        0.363037   -0.451598    4.586269
     65          1           0        1.057801    0.895528    3.657220
     66          1           0       -0.363112    1.169085    4.698355
     67          1           0       -3.713267   -2.766144    1.852390
     68          1           0       -4.428255   -1.643868    0.664652
     69          1           0       -3.140853   -2.754586    0.166854
     70          1           0       -0.969149    3.195545    2.711901
     71          1           0        0.591221    3.047598    3.564826
     72          1           0        0.216272    4.522315    2.645744
     73          1           0        2.945711    2.403924    3.248984
     74          1           0        2.746591    0.951973    2.218960
     75          1           0        4.141484    2.028561    1.988098
     76          1           0        2.834941    4.701960    2.243519
     77          1           0        3.978005    4.206717    0.974354
     78          1           0        2.436904    4.973070    0.529563
     79          1           0        3.177459    1.993388   -0.688931
     80          1           0        0.800354    2.682605   -1.844443
     81          1           0        1.865261    4.041108   -1.405116
     82          1           0        0.357974    4.724213    0.302315
     83          1           0       -0.763279    3.442681   -0.168587
     84          1           0        7.111894   -2.213783    0.137481
     85          1           0        5.643895   -3.069706    0.686790
     86          1           0        6.427954   -3.526703   -0.844329
     87          1           0        5.234171    0.733583   -4.704645
     88          1           0        5.502691    2.028127   -3.520898
     89          1           0        6.773530    0.806002   -3.801129
     90          1           0       -0.442207   -5.643660   -1.484141
     91          1           0       -1.356927   -5.969145    0.013337
     92          1           0       -1.940976   -4.752548   -1.155925
     93          1           0        1.897702   -2.652825    3.864084
     94          1           0        0.200246   -3.115638    4.150735
     95          1           0        1.412403   -4.370582    3.808932
 ---------------------------------------------------------------------

 SCF Done:  E(RPBE1PBE) =  -2784.79902788     A.U. after    1 cycles

 The electronic state is 1-A.
 Alpha  occ. eigenvalues --  -89.03616 -77.19887 -77.18884 -10.25784 -10.25262
 Alpha  occ. eigenvalues --  -10.24078 -10.23851 -10.23780 -10.23675 -10.23672
 Alpha  occ. eigenvalues --  -10.23615 -10.23603 -10.23526 -10.23514 -10.23492
 Alpha  occ. eigenvalues --  -10.23436 -10.23363 -10.23359 -10.23357 -10.23334
 Alpha  occ. eigenvalues --  -10.23329 -10.23302 -10.23244 -10.23181 -10.23126
 Alpha  occ. eigenvalues --  -10.23114 -10.22827 -10.22546 -10.22324 -10.22314
 Alpha  occ. eigenvalues --  -10.22235 -10.22221 -10.22150 -10.22075 -10.22045
 Alpha  occ. eigenvalues --  -10.21965 -10.21901 -10.21863 -10.21806 -10.21784
 Alpha  occ. eigenvalues --  -10.21656 -10.21514 -10.20912 -10.20481 -10.20446
 Alpha  occ. eigenvalues --  -10.20282 -10.20226  -8.01447  -6.59429  -6.58504
 Alpha  occ. eigenvalues --   -5.95025  -5.94694  -5.94469  -4.73025  -4.73013
 Alpha  occ. eigenvalues --   -4.72567  -4.72105  -4.72073  -4.71661  -0.90835
 Alpha  occ. eigenvalues --   -0.89294  -0.88323  -0.88004  -0.87816  -0.87476
 Alpha  occ. eigenvalues --   -0.80308  -0.80051  -0.79797  -0.79712  -0.78871
 Alpha  occ. eigenvalues --   -0.77839  -0.77207  -0.77180  -0.76909  -0.76577
 Alpha  occ. eigenvalues --   -0.76493  -0.76385  -0.74147  -0.72174  -0.70981
 Alpha  occ. eigenvalues --   -0.70517  -0.69731  -0.69272  -0.69196  -0.68528
 Alpha  occ. eigenvalues --   -0.66748  -0.66299  -0.64690  -0.62837  -0.62710
 Alpha  occ. eigenvalues --   -0.62195  -0.61568  -0.60233  -0.58913  -0.58683
 Alpha  occ. eigenvalues --   -0.58198  -0.58046  -0.55265  -0.54795  -0.54121
 Alpha  occ. eigenvalues --   -0.53144  -0.52351  -0.51382  -0.50932  -0.50353
 Alpha  occ. eigenvalues --   -0.49478  -0.48492  -0.48151  -0.47823  -0.47143
 Alpha  occ. eigenvalues --   -0.47082  -0.46721  -0.46657  -0.46112  -0.45946
 Alpha  occ. eigenvalues --   -0.44626  -0.44416  -0.43989  -0.43768  -0.43732
 Alpha  occ. eigenvalues --   -0.43425  -0.43232  -0.43158  -0.43024  -0.42584
 Alpha  occ. eigenvalues --   -0.42251  -0.42174  -0.41994  -0.41671  -0.41556
 Alpha  occ. eigenvalues --   -0.41240  -0.40981  -0.40911  -0.40594  -0.40499
 Alpha  occ. eigenvalues --   -0.40157  -0.40017  -0.39745  -0.39615  -0.38766
 Alpha  occ. eigenvalues --   -0.38493  -0.38421  -0.38084  -0.37934  -0.37752
 Alpha  occ. eigenvalues --   -0.37677  -0.36883  -0.36648  -0.36446  -0.36125
 Alpha  occ. eigenvalues --   -0.35876  -0.35591  -0.34797  -0.34702  -0.34516
 Alpha  occ. eigenvalues --   -0.34400  -0.33950  -0.33599  -0.33445  -0.33261
 Alpha  occ. eigenvalues --   -0.33100  -0.32744  -0.32456  -0.31444  -0.30473
 Alpha  occ. eigenvalues --   -0.29185  -0.28348  -0.27587  -0.27109  -0.27017
 Alpha  occ. eigenvalues --   -0.26759  -0.26449  -0.25277  -0.24687  -0.24417
 Alpha  occ. eigenvalues --   -0.24148  -0.22399  -0.20948  -0.18342
 Alpha virt. eigenvalues --   -0.03201  -0.02868  -0.02400  -0.01858  -0.01539
 Alpha virt. eigenvalues --   -0.01076  -0.00799  -0.00292   0.00265   0.00694
 Alpha virt. eigenvalues --    0.02587   0.03578   0.04256   0.04844   0.04911

 Mulliken charges:
               1
     1  C    0.242512
     2  C   -0.331737
     3  C    0.214308
     4  C   -0.312224
     5  C    0.274251
     6  C   -0.411837
     7  C    0.160262
     8  C   -0.247567
     9  C    0.203974
    10  C   -0.260188
    11  C    0.189795
    12  C   -0.289463
    13  C   -0.122883
    14  C    0.139858
    15  C    0.062246
    16  C    0.446197
    17  C   -0.344135
    18  C   -0.261515
    19  C   -0.282694
    20  C   -0.455165
    21  C   -0.417298
    22  C   -0.361035
    23  C    0.079284
    24  C   -0.098645
    25  C    0.115748
    26  C   -0.367382
    27  C   -0.415951
    28  C   -0.331422
    29  C    0.037977
    30  C   -0.157644
    31  C   -0.140178
    32  C   -0.101659
    33  C   -0.130538
    34  C   -0.164483
    35  C    0.153223
    36  C   -0.250508
    37  C   -0.108078
    38  C   -0.104709
    39  C   -0.134130
    40  C   -0.188160
    41  P    0.018760
    42  P    0.047301
    43  S   -0.032180
    44  H    0.143385
    45  C   -0.426079
    46  H    0.099661
    47  C   -0.417659
    48  H    0.116443
    49  H    0.127451
    50  C   -0.451738
    51  H    0.098454
    52  C   -0.419238
    53  H    0.129668
    54  H    0.141660
    55  H    0.119996
    56  H    0.119602
    57  H    0.123888
    58  H    0.119827
    59  H    0.126539
    60  H    0.119225
    61  H    0.117748
    62  H    0.157816
    63  H    0.117323
    64  H    0.143954
    65  H    0.139656
    66  H    0.148111
    67  H    0.129972
    68  H    0.146938
    69  H    0.137274
    70  H    0.137117
    71  H    0.120652
    72  H    0.126682
    73  H    0.121090
    74  H    0.146375
    75  H    0.121885
    76  H    0.125457
    77  H    0.124500
    78  H    0.135327
    79  H    0.143805
    80  H    0.098310
    81  H    0.109790
    82  H    0.102074
    83  H    0.117516
    84  H    0.130117
    85  H    0.131291
    86  H    0.135668
    87  H    0.136424
    88  H    0.132869
    89  H    0.128069
    90  H    0.139344
    91  H    0.127632
    92  H    0.127064
    93  H    0.134211
    94  H    0.137428
    95  H    0.137140
 Sum of Mulliken charges =  -0.00000

 Dipole moment (field-independent basis, Debye):
    X=             -0.7441    Y=             -0.3514    Z=              0.8005  Tot=              1.1480
 Quadrupole moment (field-independent basis, Debye-Ang):
   XX=           -285.3870   YY=           -283.9818   ZZ=           -295.9140
   XY=              2.7231   XZ=              1.6552   YZ=             -1.7652

 Summary of Natural Population Analysis:

                                       Natural Population
                Natural  -----------------------------------------------
    Atom  No    Charge         Core      Valence    Rydberg      Total
 -----------------------------------------------------------------------
      C    1   -0.30083      1.99904     4.27160    0.03019     6.30083
      C    2   -0.22358      1.99902     4.20664    0.01793     6.22358
      C    3   -0.00944      1.99915     3.99255    0.01773     6.00944
      C    4   -0.21723      1.99903     4.20180    0.01640     6.21723
      C    5   -0.01158      1.99915     3.99511    0.01731     6.01158
      C    6   -0.22524      1.99902     4.20826    0.01797     6.22524
      C    7   -0.30844      1.99905     4.27735    0.03205     6.30844
      C    8   -0.21373      1.99899     4.19475    0.01999     6.21373
      C    9   -0.01372      1.99914     3.99512    0.01946     6.01372
      C   10   -0.20734      1.99902     4.19444    0.01388     6.20734
      C   11   -0.01862      1.99914     4.00145    0.01804     6.01862
      C   12   -0.21146      1.99900     4.19401    0.01845     6.21146
      C   13   -0.27859      1.99884     4.24963    0.03012     6.27859
      C   14   -0.27679      1.99927     4.25797    0.01956     6.27679
      C   15    0.01228      1.99939     3.96683    0.02150     5.98772
      C   16   -0.05026      1.99926     4.02597    0.02503     6.05026
      C   17   -0.02792      1.99879     4.00235    0.02679     6.02792
      C   18   -0.41418      1.99944     4.40116    0.01359     6.41418
      C   19   -0.42088      1.99937     4.40645    0.01506     6.42088
      C   20   -0.63152      1.99938     4.61873    0.01342     6.63152
      C   21   -0.63374      1.99938     4.62083    0.01353     6.63374
      C   22   -0.63179      1.99937     4.61869    0.01373     6.63179
      C   23   -0.11164      1.99877     4.08519    0.02768     6.11164
      C   24   -0.17937      1.99900     4.15133    0.02904     6.17937
      C   25   -0.17442      1.99904     4.14447    0.03091     6.17442
      C   26   -0.34861      1.99877     4.31653    0.03331     6.34861
      C   27   -0.66016      1.99937     4.64676    0.01403     6.66016
      C   28   -0.65953      1.99936     4.64616    0.01401     6.65953
      C   29   -0.32948      1.99905     4.29763    0.03281     6.32948
      C   30   -0.22275      1.99908     4.20383    0.01984     6.22275
      C   31   -0.21514      1.99921     4.19801    0.01793     6.21514
      C   32   -0.21354      1.99922     4.19617    0.01815     6.21354
      C   33   -0.21239      1.99921     4.19555    0.01763     6.21239
      C   34   -0.20865      1.99910     4.19053    0.01902     6.20865
      C   35   -0.32163      1.99903     4.29157    0.03103     6.32163
      C   36   -0.20997      1.99910     4.19127    0.01960     6.20997
      C   37   -0.21783      1.99920     4.20066    0.01797     6.21783
      C   38   -0.21069      1.99922     4.19313    0.01834     6.21069
      C   39   -0.21414      1.99921     4.19686    0.01807     6.21414
      C   40   -0.21085      1.99909     4.19169    0.02007     6.21085
      P   41    0.86368      9.99746     4.10629    0.03257    14.13632
      P   42    0.85575      9.99774     4.11623    0.03028    14.14425
      S   43    0.42767      9.99873     5.54185    0.03175    15.57233
      H   44    0.22318      0.00000     0.77435    0.00247     0.77682
      C   45   -0.63572      1.99944     4.62470    0.01159     6.63572
      H   46    0.20572      0.00000     0.79272    0.00156     0.79428
      C   47   -0.63498      1.99944     4.62400    0.01154     6.63498
      H   48    0.21913      0.00000     0.77907    0.00181     0.78087
      H   49    0.22045      0.00000     0.77581    0.00373     0.77955
      C   50   -0.64028      1.99943     4.62856    0.01229     6.64028
      H   51    0.20699      0.00000     0.79110    0.00191     0.79301
      C   52   -0.63603      1.99943     4.62499    0.01161     6.63603
      H   53    0.21852      0.00000     0.77958    0.00190     0.78148
      H   54    0.23136      0.00000     0.76641    0.00223     0.76864
      H   55    0.21918      0.00000     0.77965    0.00117     0.78082
      H   56    0.21924      0.00000     0.77947    0.00128     0.78076
      H   57    0.22561      0.00000     0.77265    0.00174     0.77439
      H   58    0.21951      0.00000     0.77921    0.00128     0.78049
      H   59    0.22616      0.00000     0.77215    0.00169     0.77384
      H   60    0.21921      0.00000     0.77962    0.00117     0.78079
      H   61    0.21979      0.00000     0.77894    0.00127     0.78021
      H   62    0.23503      0.00000     0.76256    0.00241     0.76497
      H   63    0.21897      0.00000     0.77971    0.00132     0.78103
      H   64    0.22682      0.00000     0.77176    0.00143     0.77318
      H   65    0.23948      0.00000     0.75907    0.00145     0.76052
      H   66    0.22782      0.00000     0.77066    0.00152     0.77218
      H   67    0.22318      0.00000     0.77548    0.00134     0.77682
      H   68    0.23830      0.00000     0.75976    0.00194     0.76170
      H   69    0.23759      0.00000     0.76007    0.00234     0.76241
      H   70    0.22457      0.00000     0.77398    0.00144     0.77543
      H   71    0.21141      0.00000     0.78701    0.00158     0.78859
      H   72    0.21631      0.00000     0.78245    0.00124     0.78369
      H   73    0.20714      0.00000     0.79146    0.00140     0.79286
      H   74    0.22069      0.00000     0.77822    0.00108     0.77931
      H   75    0.21787      0.00000     0.78086    0.00127     0.78213
      H   76    0.21433      0.00000     0.78439    0.00128     0.78567
      H   77    0.21578      0.00000     0.78295    0.00127     0.78422
      H   78    0.21555      0.00000     0.78338    0.00107     0.78445
      H   79    0.23642      0.00000     0.76068    0.00290     0.76358
      H   80    0.22016      0.00000     0.77805    0.00179     0.77984
      H   81    0.21153      0.00000     0.78701    0.00146     0.78847
      H   82    0.20690      0.00000     0.79157    0.00153     0.79310
      H   83    0.23614      0.00000     0.76152    0.00235     0.76386
      H   84    0.21964      0.00000     0.77927    0.00109     0.78036
      H   85    0.21992      0.00000     0.77919    0.00090     0.78008
      H   86    0.22348      0.00000     0.77534    0.00118     0.77652
      H   87    0.22395      0.00000     0.77493    0.00112     0.77605
      H   88    0.22193      0.00000     0.77691    0.00115     0.77807
      H   89    0.21737      0.00000     0.78168    0.00096     0.78263
      H   90    0.22470      0.00000     0.77417    0.00113     0.77530
      H   91    0.21865      0.00000     0.78043    0.00093     0.78135
      H   92    0.22214      0.00000     0.77651    0.00134     0.77786
      H   93    0.21839      0.00000     0.78054    0.00106     0.78161
      H   94    0.22751      0.00000     0.77075    0.00175     0.77249
      H   95    0.22157      0.00000     0.77736    0.00106     0.77843
 =======================================================================
   * Total *   -0.00000    117.95691   238.99601    1.04708   358.00000

 Normal termination of Gaussian 16 at Mon Nov  1 18:08:52 2021.
