 Gaussian 16, Revision B.01,

 ----------------------------------------------------------------------
 # PBE1PBE gen pseudo=read int=(grid=ultrafine) empiricaldispersion=GD3
 BJ nmr=giao
 ----------------------------------------------------------------------

 -----
 title
 -----
 Symbolic Z-matrix:
 Charge =  0 Multiplicity = 1

 SCF Done:  E(RPBE1PBE) =  -3832.99158956     A.U. after   21 cycles

      1  C    Isotropic =    51.5449   Anisotropy =   166.9759

      2  C    Isotropic =    50.0182   Anisotropy =   165.7941

      3  C    Isotropic =    41.9882   Anisotropy =   191.6699

      4  C    Isotropic =    47.7412   Anisotropy =   149.3327

      5  C    Isotropic =    41.6084   Anisotropy =   193.7992

      6  C    Isotropic =    40.1222   Anisotropy =   189.1783

      7  C    Isotropic =    49.5693   Anisotropy =   175.4077

      8  C    Isotropic =    46.7956   Anisotropy =   172.1329

      9  C    Isotropic =    41.8904   Anisotropy =   197.5258

     10  C    Isotropic =    46.7464   Anisotropy =   154.1267

     11  C    Isotropic =    39.7921   Anisotropy =   198.5508

     12  C    Isotropic =    40.4285   Anisotropy =   175.9274

     13  C    Isotropic =    32.9729   Anisotropy =   164.7871

     14  C    Isotropic =   125.9843   Anisotropy =    29.1523

     15  C    Isotropic =   122.6248   Anisotropy =    20.6643

     16  C    Isotropic =   118.4761   Anisotropy =    18.2281

     17  C    Isotropic =    28.5206   Anisotropy =   159.8700

     18  C    Isotropic =   156.7158   Anisotropy =    21.3613

     19  C    Isotropic =   150.3525   Anisotropy =    40.2524

     20  C    Isotropic =   164.1048   Anisotropy =    30.3458

     21  C    Isotropic =   165.0393   Anisotropy =    36.6180

     22  C    Isotropic =   170.8734   Anisotropy =    23.1967

     23  C    Isotropic =    39.6661   Anisotropy =   121.9753

     24  C    Isotropic =    36.3251   Anisotropy =   142.0670

     25  C    Isotropic =    25.8311   Anisotropy =   151.1288

     26  C    Isotropic =    55.4193   Anisotropy =   142.3941

     27  C    Isotropic =   167.9715   Anisotropy =    19.6849

     28  C    Isotropic =   168.7804   Anisotropy =    20.5966

     29  C    Isotropic =    45.1624   Anisotropy =   184.2016

     30  C    Isotropic =    43.8999   Anisotropy =   198.7051

     31  C    Isotropic =    53.1091   Anisotropy =   184.4576

     32  C    Isotropic =    48.1828   Anisotropy =   193.1622

     33  C    Isotropic =    49.8886   Anisotropy =   190.6139

     34  C    Isotropic =    37.2256   Anisotropy =   210.2431

     35  C    Isotropic =    42.0958   Anisotropy =   187.9414

     36  C    Isotropic =    36.1334   Anisotropy =   199.1389

     37  C    Isotropic =    51.8923   Anisotropy =   185.7081

     38  C    Isotropic =    49.1204   Anisotropy =   190.7734

     39  C    Isotropic =    53.0715   Anisotropy =   183.1404

     40  C    Isotropic =    44.8693   Anisotropy =   197.9308

     41  P    Isotropic =   249.7769   Anisotropy =   117.4645

     42  P    Isotropic =   253.8191   Anisotropy =   119.6073

     43  S    Isotropic =   177.4107   Anisotropy =   202.9012

     44  Pd   Isotropic =  -177.5708   Anisotropy =   252.0955

     45  Cl   Isotropic =   846.8162   Anisotropy =   275.7747

     46  Cl   Isotropic =   887.1715   Anisotropy =   517.1186

     47  H    Isotropic =    24.6126   Anisotropy =    15.4718

     48  C    Isotropic =   163.1091   Anisotropy =    40.7611

     49  H    Isotropic =    24.1361   Anisotropy =     7.1793

     50  C    Isotropic =   162.8327   Anisotropy =    40.6891

     51  H    Isotropic =    22.8520   Anisotropy =    12.4324

     52  H    Isotropic =    24.3113   Anisotropy =     8.4179

     53  C    Isotropic =   163.3689   Anisotropy =    37.0751

     54  H    Isotropic =    24.2566   Anisotropy =     6.8032

     55  C    Isotropic =   162.7612   Anisotropy =    39.6424

     56  H    Isotropic =    22.0509   Anisotropy =    12.7114

     57  H    Isotropic =    24.4192   Anisotropy =    13.9386

     58  H    Isotropic =    23.8004   Anisotropy =     3.4618

     59  H    Isotropic =    24.1240   Anisotropy =     6.5801

     60  H    Isotropic =    21.8949   Anisotropy =    12.1740

     61  H    Isotropic =    23.5995   Anisotropy =     7.4760

     62  H    Isotropic =    20.9529   Anisotropy =    12.7754

     63  H    Isotropic =    23.7198   Anisotropy =     2.9427

     64  H    Isotropic =    23.6111   Anisotropy =     6.5421

     65  H    Isotropic =    24.5119   Anisotropy =    12.4442

     66  H    Isotropic =    23.9380   Anisotropy =     6.9582

     67  H    Isotropic =    29.1190   Anisotropy =     8.6485

     68  H    Isotropic =    28.6517   Anisotropy =     7.7434

     69  H    Isotropic =    29.1789   Anisotropy =     9.9703

     70  H    Isotropic =    30.4157   Anisotropy =     8.7494

     71  H    Isotropic =    30.4708   Anisotropy =    10.1402

     72  H    Isotropic =    30.5722   Anisotropy =     5.6037

     73  H    Isotropic =    30.3828   Anisotropy =     4.9111

     74  H    Isotropic =    30.2733   Anisotropy =     8.5587

     75  H    Isotropic =    30.9971   Anisotropy =    10.5820

     76  H    Isotropic =    30.8597   Anisotropy =     9.4533

     77  H    Isotropic =    29.9932   Anisotropy =     4.3253

     78  H    Isotropic =    31.1604   Anisotropy =     9.0856

     79  H    Isotropic =    30.8755   Anisotropy =    11.1191

     80  H    Isotropic =    31.0214   Anisotropy =    10.9664

     81  H    Isotropic =    30.5863   Anisotropy =     8.7792

     82  H    Isotropic =    28.8772   Anisotropy =    12.3133

     83  H    Isotropic =    29.1224   Anisotropy =     9.9144

     84  H    Isotropic =    29.5101   Anisotropy =    10.2045

     85  H    Isotropic =    30.5485   Anisotropy =     7.6468

     86  H    Isotropic =    32.4440   Anisotropy =    22.4144

     87  H    Isotropic =    29.1412   Anisotropy =     9.4543

     88  H    Isotropic =    29.6274   Anisotropy =     5.6639

     89  H    Isotropic =    29.0139   Anisotropy =     9.8628

     90  H    Isotropic =    28.5105   Anisotropy =     7.3100

     91  H    Isotropic =    28.8211   Anisotropy =     6.7843

     92  H    Isotropic =    29.3690   Anisotropy =     9.8076

     93  H    Isotropic =    28.6191   Anisotropy =     9.0345

     94  H    Isotropic =    29.4162   Anisotropy =     9.4156

     95  H    Isotropic =    28.6236   Anisotropy =     6.7667

     96  H    Isotropic =    29.4454   Anisotropy =     5.3277

     97  H    Isotropic =    28.7020   Anisotropy =     5.4695

     98  H    Isotropic =    29.0129   Anisotropy =    10.9016

 Normal termination of Gaussian 16 at Mon Nov  1 18:22:06 2021.
 Gaussian 16:  ES64L-G16RevB.01 20-Dec-2017

 ----------------------------------------------------------------------
 # PBE1PBE gen pseudo=read int=(grid=ultrafine) empiricaldispersion=GD3
 BJ pop=nbo guess=read geom=check
 ----------------------------------------------------------------------

 -----
 title
 -----
 Structure from the checkpoint file:  "catASium_T2_1_SPE.chk"
 Charge =  0 Multiplicity = 1

                         Standard orientation:
 ---------------------------------------------------------------------
 Center     Atomic      Atomic             Coordinates (Angstroms)
 Number     Number       Type             X           Y           Z
 ---------------------------------------------------------------------
      1          6           0        3.148967   -0.748859   -0.744638
      2          6           0        3.994791   -1.467124    0.120022
      3          6           0        5.365100   -1.587306   -0.162912
      4          6           0        5.868567   -0.972387   -1.323964
      5          6           0        5.040066   -0.259793   -2.206019
      6          6           0        3.669925   -0.156010   -1.906570
      7          6           0        0.992915   -1.709768    0.981821
      8          6           0        1.366165   -1.533284    2.326763
      9          6           0        1.011511   -2.488535    3.291941
     10          6           0        0.281450   -3.622003    2.882019
     11          6           0       -0.085858   -3.828185    1.542594
     12          6           0        0.284663   -2.858000    0.593429
     13          6           0        1.364885    1.177992    0.384475
     14          6           0        2.208371    2.311540   -0.189910
     15          6           0        2.313065    3.261089    1.045547
     16          6           0        0.748533    3.252455    1.276114
     17          6           0        0.467311    1.728298    1.259489
     18          6           0        1.231697    3.079484   -1.139728
     19          6           0        0.253499    3.742906   -0.138505
     20          6           0        3.147043    2.666771    2.192238
     21          6           0        2.899692    4.646745    0.728118
     22          6           0        0.175831    4.095757    2.407050
     23          6           0       -0.591916    0.983993    1.974595
     24          6           0       -0.614744    0.899018    3.362157
     25          6           0       -2.299825   -0.647259    2.268470
     26          6           0       -1.581866    0.104681    1.342452
     27          6           0        0.300392    1.502183    4.387705
     28          6           0       -3.339718   -1.729458    2.164151
     29          6           0       -2.564609    1.836698   -0.699245
     30          6           0       -3.136261    2.528404    0.389331
     31          6           0       -3.650167    3.819693    0.208744
     32          6           0       -3.597301    4.427215   -1.054267
     33          6           0       -3.039595    3.735385   -2.139560
     34          6           0       -2.523815    2.443957   -1.969632
     35          6           0       -3.341823   -0.952435   -0.760234
     36          6           0       -3.123278   -2.288083   -1.147507
     37          6           0       -4.206101   -3.159186   -1.308617
     38          6           0       -5.516276   -2.696180   -1.111044
     39          6           0       -5.739004   -1.355835   -0.766035
     40          6           0       -4.655588   -0.482823   -0.590133
     41         15           0        1.381382   -0.491275   -0.328495
     42         15           0       -1.886836    0.137045   -0.484366
     43         16           0       -1.808883   -0.244654    3.894873
     44         46           0       -0.222074   -0.540095   -1.956178
     45         17           0        1.255383   -1.598658   -3.471018
     46         17           0       -1.886505   -0.445123   -3.678178
     47          1           0        3.588440   -1.944472    1.017289
     48          6           0        6.275144   -2.379838    0.747372
     49          1           0        6.937870   -1.062179   -1.554173
     50          6           0        5.585365    0.361969   -3.470188
     51          1           0        3.000033    0.357643   -2.602333
     52          1           0        1.916799   -0.634800    2.626353
     53          6           0        1.361795   -2.285802    4.747320
     54          1           0       -0.012043   -4.364613    3.634767
     55          6           0       -0.874439   -5.045469    1.117753
     56          1           0        0.015293   -2.982892   -0.462367
     57          1           0       -4.833465    0.563499   -0.323511
     58          1           0       -6.364336   -3.374571   -1.249427
     59          1           0       -6.760792   -0.983067   -0.639420
     60          1           0       -2.103194   -2.627340   -1.351490
     61          1           0       -4.027640   -4.194867   -1.615591
     62          1           0       -2.097753    1.891320   -2.813926
     63          1           0       -3.990668    5.439872   -1.191524
     64          1           0       -2.999088    4.203814   -3.128257
     65          1           0       -3.162523    2.062809    1.379370
     66          1           0       -4.086750    4.353097    1.059711
     67          1           0        0.591461    0.753752    5.145028
     68          1           0        1.220413    1.871087    3.913541
     69          1           0       -0.169766    2.346765    4.922959
     70          1           0       -3.519482   -2.177011    3.155495
     71          1           0       -4.302494   -1.359187    1.777276
     72          1           0       -3.006379   -2.531995    1.488302
     73          1           0       -0.893757    3.869766    2.561578
     74          1           0        0.698431    3.940696    3.364093
     75          1           0        0.255861    5.167383    2.156012
     76          1           0        3.055570    3.280861    3.106787
     77          1           0        2.856372    1.632928    2.433438
     78          1           0        4.215672    2.653370    1.914721
     79          1           0        2.853814    5.295084    1.621393
     80          1           0        3.963897    4.548048    0.449944
     81          1           0        2.390010    5.171130   -0.092988
     82          1           0        3.160447    2.007213   -0.647710
     83          1           0        0.728523    2.383316   -1.833100
     84          1           0        1.774507    3.822526   -1.748506
     85          1           0        0.311149    4.844440   -0.177472
     86          1           0       -0.794107    3.472314   -0.307703
     87          1           0        7.222880   -1.846197    0.936867
     88          1           0        5.796201   -2.581787    1.719718
     89          1           0        6.537574   -3.355681    0.298671
     90          1           0        5.106705   -0.082176   -4.361153
     91          1           0        5.384425    1.447687   -3.505821
     92          1           0        6.674269    0.214485   -3.557446
     93          1           0       -0.296845   -5.672386    0.415179
     94          1           0       -1.150800   -5.670807    1.982295
     95          1           0       -1.804655   -4.754819    0.595994
     96          1           0        2.153489   -1.528019    4.869825
     97          1           0        0.478829   -1.942637    5.318521
     98          1           0        1.708710   -3.222490    5.216500
 ---------------------------------------------------------------------

 SCF Done:  E(RPBE1PBE) =  -3832.99158956     A.U. after    1 cycles

 The electronic state is 1-A.
 Alpha  occ. eigenvalues -- -101.60694-101.60592 -89.06150 -77.26458 -77.25983
 Alpha  occ. eigenvalues --  -10.28714 -10.27830 -10.26126 -10.26085 -10.25581
 Alpha  occ. eigenvalues --  -10.25572 -10.25562 -10.25481 -10.25396 -10.25298
 Alpha  occ. eigenvalues --  -10.25236 -10.24929 -10.24798 -10.24664 -10.24643
 Alpha  occ. eigenvalues --  -10.24586 -10.24584 -10.24447 -10.24438 -10.24273
 Alpha  occ. eigenvalues --  -10.24227 -10.24184 -10.24120 -10.24086 -10.24062
 Alpha  occ. eigenvalues --  -10.24023 -10.24020 -10.23993 -10.23952 -10.23885
 Alpha  occ. eigenvalues --  -10.23789 -10.23705 -10.23589 -10.23205 -10.23107
 Alpha  occ. eigenvalues --  -10.22834 -10.22807 -10.22462 -10.22286 -10.22169
 Alpha  occ. eigenvalues --  -10.21942 -10.21938 -10.21905 -10.21805  -9.43199
 Alpha  occ. eigenvalues --   -9.43119  -8.03974  -7.16407  -7.16299  -7.15932
 Alpha  occ. eigenvalues --   -7.15853  -7.15853  -7.15800  -6.65591  -6.65213
 Alpha  occ. eigenvalues --   -5.97555  -5.97218  -5.96994  -4.79198  -4.79158
 Alpha  occ. eigenvalues --   -4.78929  -4.78805  -4.78771  -4.78573  -3.51470
 Alpha  occ. eigenvalues --   -2.19155  -2.19065  -2.15800  -0.93196  -0.91634
 Alpha  occ. eigenvalues --   -0.89908  -0.89328  -0.88675  -0.88619  -0.82606
 Alpha  occ. eigenvalues --   -0.82129  -0.81707  -0.80915  -0.80513  -0.79661
 Alpha  occ. eigenvalues --   -0.78863  -0.78417  -0.78184  -0.77847  -0.77691
 Alpha  occ. eigenvalues --   -0.77459  -0.76245  -0.74339  -0.73613  -0.72778
 Alpha  occ. eigenvalues --   -0.72512  -0.71522  -0.71362  -0.71140  -0.70454
 Alpha  occ. eigenvalues --   -0.70065  -0.68919  -0.68776  -0.66834  -0.64881
 Alpha  occ. eigenvalues --   -0.63472  -0.63154  -0.62421  -0.62037  -0.60767
 Alpha  occ. eigenvalues --   -0.60407  -0.59926  -0.59031  -0.57410  -0.57167
 Alpha  occ. eigenvalues --   -0.56071  -0.54367  -0.54108  -0.53024  -0.52806
 Alpha  occ. eigenvalues --   -0.51753  -0.51385  -0.50493  -0.49579  -0.49520
 Alpha  occ. eigenvalues --   -0.48766  -0.48268  -0.48015  -0.47908  -0.47425
 Alpha  occ. eigenvalues --   -0.47058  -0.46504  -0.46149  -0.45656  -0.45504
 Alpha  occ. eigenvalues --   -0.45084  -0.44754  -0.44542  -0.44303  -0.44067
 Alpha  occ. eigenvalues --   -0.43879  -0.43736  -0.43592  -0.43452  -0.43209
 Alpha  occ. eigenvalues --   -0.42934  -0.42799  -0.42508  -0.42300  -0.42045
 Alpha  occ. eigenvalues --   -0.41894  -0.41798  -0.41487  -0.41360  -0.40758
 Alpha  occ. eigenvalues --   -0.40731  -0.40493  -0.39942  -0.39797  -0.39526
 Alpha  occ. eigenvalues --   -0.39349  -0.39165  -0.38965  -0.38652  -0.38561
 Alpha  occ. eigenvalues --   -0.38100  -0.37004  -0.36855  -0.36612  -0.36507
 Alpha  occ. eigenvalues --   -0.36333  -0.36259  -0.35930  -0.35867  -0.35771
 Alpha  occ. eigenvalues --   -0.35200  -0.35070  -0.34966  -0.34792  -0.34657
 Alpha  occ. eigenvalues --   -0.34455  -0.33781  -0.32785  -0.32452  -0.31149
 Alpha  occ. eigenvalues --   -0.30954  -0.30259  -0.29704  -0.29614  -0.29154
 Alpha  occ. eigenvalues --   -0.28205  -0.27828  -0.27397  -0.26999  -0.26774
 Alpha  occ. eigenvalues --   -0.26369  -0.26047  -0.25617  -0.25277  -0.24895
 Alpha  occ. eigenvalues --   -0.24434  -0.23535  -0.23332  -0.22852  -0.22460
 Alpha virt. eigenvalues --   -0.07634  -0.04949  -0.04192  -0.03926  -0.03374
 Alpha virt. eigenvalues --   -0.02606  -0.02362  -0.02179  -0.01326  -0.00989
 Alpha virt. eigenvalues --   -0.00639   0.00586   0.01247   0.01828   0.02604

 Mulliken charges:
               1
     1  C    0.221556
     2  C   -0.333910
     3  C    0.210103
     4  C   -0.296150
     5  C    0.262345
     6  C   -0.426399
     7  C    0.033138
     8  C   -0.241134
     9  C    0.191384
    10  C   -0.242960
    11  C    0.156789
    12  C   -0.229748
    13  C   -0.113026
    14  C    0.158289
    15  C    0.059269
    16  C    0.452369
    17  C   -0.338043
    18  C   -0.312341
    19  C   -0.280516
    20  C   -0.458368
    21  C   -0.415789
    22  C   -0.357378
    23  C    0.003544
    24  C   -0.081754
    25  C    0.118423
    26  C   -0.369342
    27  C   -0.416113
    28  C   -0.319153
    29  C   -0.074764
    30  C   -0.112930
    31  C   -0.154474
    32  C   -0.086163
    33  C   -0.153179
    34  C   -0.115418
    35  C    0.127067
    36  C   -0.161934
    37  C   -0.099912
    38  C   -0.099979
    39  C   -0.132089
    40  C   -0.228369
    41  P    0.313231
    42  P    0.306542
    43  S   -0.006727
    44  Pd  -0.025903
    45  Cl  -0.420942
    46  Cl  -0.417352
    47  H    0.145331
    48  C   -0.428475
    49  H    0.103971
    50  C   -0.428439
    51  H    0.178705
    52  H    0.125848
    53  C   -0.454326
    54  H    0.104465
    55  C   -0.427733
    56  H    0.224997
    57  H    0.143043
    58  H    0.122339
    59  H    0.121685
    60  H    0.157328
    61  H    0.125497
    62  H    0.170765
    63  H    0.123290
    64  H    0.129449
    65  H    0.156042
    66  H    0.120582
    67  H    0.149323
    68  H    0.143294
    69  H    0.154927
    70  H    0.134418
    71  H    0.154086
    72  H    0.144560
    73  H    0.139539
    74  H    0.122983
    75  H    0.133582
    76  H    0.125829
    77  H    0.142999
    78  H    0.128916
    79  H    0.128609
    80  H    0.130294
    81  H    0.140697
    82  H    0.156798
    83  H    0.159575
    84  H    0.122548
    85  H    0.112735
    86  H    0.117119
    87  H    0.132342
    88  H    0.128485
    89  H    0.142248
    90  H    0.158560
    91  H    0.131523
    92  H    0.125449
    93  H    0.152541
    94  H    0.128585
    95  H    0.132305
    96  H    0.136907
    97  H    0.137933
    98  H    0.144140
 Sum of Mulliken charges =  -0.00000

 Dipole moment (field-independent basis, Debye):
    X=              0.1171    Y=              2.6322    Z=             11.0196  Tot=             11.3302
 Quadrupole moment (field-independent basis, Debye-Ang):
   XX=           -315.4882   YY=           -319.4992   ZZ=           -369.3752
   XY=              4.4527   XZ=             -5.1736   YZ=            -17.3359

 Summary of Natural Population Analysis:

                                       Natural Population
                Natural  -----------------------------------------------
    Atom  No    Charge         Core      Valence    Rydberg      Total
 -----------------------------------------------------------------------
      C    1   -0.33391      1.99900     4.30056    0.03436     6.33391
      C    2   -0.21237      1.99901     4.19484    0.01852     6.21237
      C    3   -0.01609      1.99915     3.99924    0.01769     6.01609
      C    4   -0.19460      1.99903     4.17979    0.01578     6.19460
      C    5   -0.01260      1.99915     3.99609    0.01736     6.01260
      C    6   -0.18213      1.99901     4.16525    0.01787     6.18213
      C    7   -0.33886      1.99902     4.30535    0.03449     6.33886
      C    8   -0.21159      1.99899     4.19202    0.02058     6.21159
      C    9   -0.01282      1.99914     3.99449    0.01920     6.01282
      C   10   -0.19809      1.99902     4.18534    0.01373     6.19809
      C   11   -0.01143      1.99914     3.99447    0.01782     6.01143
      C   12   -0.19667      1.99899     4.17997    0.01771     6.19667
      C   13   -0.31577      1.99884     4.28146    0.03547     6.31577
      C   14   -0.27718      1.99926     4.25850    0.01942     6.27718
      C   15    0.01527      1.99939     3.96379    0.02156     5.98473
      C   16   -0.05808      1.99926     4.03370    0.02512     6.05808
      C   17    0.03432      1.99880     3.94025    0.02663     5.96568
      C   18   -0.41184      1.99942     4.39858    0.01383     6.41184
      C   19   -0.42089      1.99936     4.40677    0.01475     6.42089
      C   20   -0.63228      1.99938     4.61941    0.01350     6.63228
      C   21   -0.63380      1.99938     4.62097    0.01345     6.63380
      C   22   -0.63243      1.99937     4.61937    0.01369     6.63243
      C   23   -0.11844      1.99877     4.09215    0.02751     6.11844
      C   24   -0.16741      1.99900     4.13973    0.02869     6.16741
      C   25   -0.14248      1.99903     4.11318    0.03027     6.14248
      C   26   -0.38770      1.99876     4.35196    0.03698     6.38770
      C   27   -0.66273      1.99937     4.64929    0.01407     6.66273
      C   28   -0.66470      1.99936     4.65122    0.01412     6.66470
      C   29   -0.36997      1.99901     4.33361    0.03735     6.36997
      C   30   -0.21729      1.99909     4.19767    0.02054     6.21729
      C   31   -0.22218      1.99921     4.20447    0.01850     6.22218
      C   32   -0.19753      1.99922     4.18042    0.01789     6.19753
      C   33   -0.20882      1.99921     4.19201    0.01761     6.20882
      C   34   -0.18933      1.99911     4.17093    0.01929     6.18933
      C   35   -0.33454      1.99899     4.29938    0.03617     6.33454
      C   36   -0.17927      1.99907     4.16039    0.01980     6.17927
      C   37   -0.21297      1.99920     4.19564    0.01812     6.21297
      C   38   -0.19761      1.99922     4.18040    0.01799     6.19761
      C   39   -0.21405      1.99921     4.19696    0.01788     6.21405
      C   40   -0.20858      1.99908     4.18866    0.02084     6.20858
      P   41    1.22062      9.99534     3.72950    0.05454    13.77938
      P   42    1.18300      9.99569     3.76728    0.05404    13.81700
      S   43    0.44960      9.99873     5.52089    0.03079    15.55040
     Pd   44   -0.20337     35.98912    10.18644    0.02781    46.20337
     Cl   45   -0.40365      9.99964     7.39545    0.00856    17.40365
     Cl   46   -0.42969      9.99964     7.42171    0.00834    17.42969
      H   47    0.22394      0.00000     0.77363    0.00244     0.77606
      C   48   -0.63457      1.99944     4.62367    0.01147     6.63457
      H   49    0.20888      0.00000     0.78962    0.00149     0.79112
      C   50   -0.63666      1.99943     4.62591    0.01131     6.63666
      H   51    0.24471      0.00000     0.75356    0.00173     0.75529
      H   52    0.22110      0.00000     0.77513    0.00377     0.77890
      C   53   -0.64042      1.99943     4.62875    0.01224     6.64042
      H   54    0.21079      0.00000     0.78737    0.00184     0.78921
      C   55   -0.63841      1.99943     4.62747    0.01151     6.63841
      H   56    0.23959      0.00000     0.75850    0.00191     0.76041
      H   57    0.23125      0.00000     0.76662    0.00213     0.76875
      H   58    0.22115      0.00000     0.77769    0.00116     0.77885
      H   59    0.22202      0.00000     0.77675    0.00123     0.77798
      H   60    0.23742      0.00000     0.76052    0.00206     0.76258
      H   61    0.22437      0.00000     0.77438    0.00125     0.77563
      H   62    0.27113      0.00000     0.72725    0.00162     0.72887
      H   63    0.22126      0.00000     0.77757    0.00117     0.77874
      H   64    0.22648      0.00000     0.77235    0.00117     0.77352
      H   65    0.23235      0.00000     0.76533    0.00232     0.76765
      H   66    0.22184      0.00000     0.77689    0.00127     0.77816
      H   67    0.23052      0.00000     0.76809    0.00139     0.76948
      H   68    0.24086      0.00000     0.75766    0.00148     0.75914
      H   69    0.23321      0.00000     0.76534    0.00145     0.76679
      H   70    0.22606      0.00000     0.77263    0.00131     0.77394
      H   71    0.24642      0.00000     0.75159    0.00199     0.75358
      H   72    0.24538      0.00000     0.75233    0.00229     0.75462
      H   73    0.22520      0.00000     0.77346    0.00134     0.77480
      H   74    0.21212      0.00000     0.78633    0.00155     0.78788
      H   75    0.22128      0.00000     0.77754    0.00118     0.77872
      H   76    0.20964      0.00000     0.78899    0.00137     0.79036
      H   77    0.21628      0.00000     0.78258    0.00114     0.78372
      H   78    0.22221      0.00000     0.77655    0.00123     0.77779
      H   79    0.21630      0.00000     0.78247    0.00124     0.78370
      H   80    0.21962      0.00000     0.77917    0.00121     0.78038
      H   81    0.21796      0.00000     0.78100    0.00104     0.78204
      H   82    0.24301      0.00000     0.75409    0.00290     0.75699
      H   83    0.23398      0.00000     0.76461    0.00141     0.76602
      H   84    0.21930      0.00000     0.77934    0.00136     0.78070
      H   85    0.21414      0.00000     0.78441    0.00146     0.78586
      H   86    0.23767      0.00000     0.75971    0.00262     0.76233
      H   87    0.22119      0.00000     0.77778    0.00103     0.77881
      H   88    0.21866      0.00000     0.78046    0.00088     0.78134
      H   89    0.22679      0.00000     0.77206    0.00115     0.77321
      H   90    0.23690      0.00000     0.76194    0.00116     0.76310
      H   91    0.22240      0.00000     0.77649    0.00111     0.77760
      H   92    0.21635      0.00000     0.78273    0.00092     0.78365
      H   93    0.23298      0.00000     0.76593    0.00109     0.76702
      H   94    0.21935      0.00000     0.77975    0.00090     0.78065
      H   95    0.22614      0.00000     0.77256    0.00130     0.77386
      H   96    0.21945      0.00000     0.77952    0.00103     0.78055
      H   97    0.22708      0.00000     0.77126    0.00165     0.77292
      H   98    0.22626      0.00000     0.77272    0.00101     0.77374
 =======================================================================
   * Total *   -0.00000    173.94093   262.89958    1.15949   438.00000

 Normal termination of Gaussian 16 at Mon Nov  1 18:25:45 2021.
