 Gaussian 16, Revision B.01,

 ----------------------------------------------------------------------
 # PBE1PBE gen pseudo=read int=(grid=ultrafine) empiricaldispersion=GD3
 BJ nmr=giao
 ----------------------------------------------------------------------

 -----
 title
 -----
 Symbolic Z-matrix:
 Charge =  0 Multiplicity = 1

 SCF Done:  E(RPBE1PBE) =  -3832.99028650     A.U. after   21 cycles

      1  C    Isotropic =    47.6923   Anisotropy =   165.3084

      2  C    Isotropic =    51.1430   Anisotropy =   154.6957

      3  C    Isotropic =    42.1324   Anisotropy =   190.6024

      4  C    Isotropic =    48.0484   Anisotropy =   150.1280

      5  C    Isotropic =    39.6385   Anisotropy =   195.9456

      6  C    Isotropic =    40.8144   Anisotropy =   189.3829

      7  C    Isotropic =    41.0436   Anisotropy =   185.1048

      8  C    Isotropic =    45.3472   Anisotropy =   167.8869

      9  C    Isotropic =    40.8415   Anisotropy =   196.9700

     10  C    Isotropic =    48.0060   Anisotropy =   151.8394

     11  C    Isotropic =    41.0985   Anisotropy =   198.6001

     12  C    Isotropic =    49.6003   Anisotropy =   170.0423

     13  C    Isotropic =    35.7758   Anisotropy =   167.8295

     14  C    Isotropic =   125.8420   Anisotropy =    25.2548

     15  C    Isotropic =   122.6616   Anisotropy =    19.8983

     16  C    Isotropic =   118.7074   Anisotropy =    18.7289

     17  C    Isotropic =    24.6724   Anisotropy =   164.6169

     18  C    Isotropic =   154.9880   Anisotropy =    22.6462

     19  C    Isotropic =   150.2843   Anisotropy =    41.1013

     20  C    Isotropic =   162.3570   Anisotropy =    28.8689

     21  C    Isotropic =   164.5337   Anisotropy =    36.9651

     22  C    Isotropic =   171.1962   Anisotropy =    22.7386

     23  C    Isotropic =    39.9377   Anisotropy =   120.5287

     24  C    Isotropic =    35.5663   Anisotropy =   142.2148

     25  C    Isotropic =    26.5309   Anisotropy =   150.4121

     26  C    Isotropic =    54.3106   Anisotropy =   143.8833

     27  C    Isotropic =   168.0215   Anisotropy =    20.2317

     28  C    Isotropic =   167.7507   Anisotropy =    17.7698

     29  C    Isotropic =    44.4231   Anisotropy =   185.3443

     30  C    Isotropic =    43.9198   Anisotropy =   197.7609

     31  C    Isotropic =    53.2156   Anisotropy =   183.4974

     32  C    Isotropic =    48.4083   Anisotropy =   193.0399

     33  C    Isotropic =    49.7499   Anisotropy =   190.8477

     34  C    Isotropic =    36.3034   Anisotropy =   212.1255

     35  C    Isotropic =    44.6291   Anisotropy =   185.6347

     36  C    Isotropic =    35.9988   Anisotropy =   197.5157

     37  C    Isotropic =    51.8829   Anisotropy =   184.9664

     38  C    Isotropic =    48.7691   Anisotropy =   191.0186

     39  C    Isotropic =    52.8939   Anisotropy =   183.5029

     40  C    Isotropic =    43.6423   Anisotropy =   199.7112

     41  P    Isotropic =   251.3315   Anisotropy =   121.7480

     42  P    Isotropic =   247.2183   Anisotropy =   130.7336

     43  S    Isotropic =   177.9421   Anisotropy =   206.5555

     44  Pd   Isotropic =  -178.9643   Anisotropy =   245.5918

     45  Cl   Isotropic =   890.0815   Anisotropy =   375.1860

     46  Cl   Isotropic =   882.6359   Anisotropy =   486.9406

     47  H    Isotropic =    23.9875   Anisotropy =    11.3333

     48  C    Isotropic =   163.2888   Anisotropy =    39.1813

     49  H    Isotropic =    24.2054   Anisotropy =     7.4634

     50  C    Isotropic =   163.0421   Anisotropy =    41.0101

     51  H    Isotropic =    22.6270   Anisotropy =    14.1470

     52  H    Isotropic =    22.3007   Anisotropy =    11.6090

     53  C    Isotropic =   162.9999   Anisotropy =    38.8261

     54  H    Isotropic =    24.5968   Anisotropy =     6.7661

     55  C    Isotropic =   163.8271   Anisotropy =    37.7117

     56  H    Isotropic =    24.5053   Anisotropy =     8.9585

     57  H    Isotropic =    24.3137   Anisotropy =    13.8951

     58  H    Isotropic =    23.7571   Anisotropy =     3.4693

     59  H    Isotropic =    24.0954   Anisotropy =     6.7213

     60  H    Isotropic =    21.9247   Anisotropy =    12.1642

     61  H    Isotropic =    23.5347   Anisotropy =     7.3119

     62  H    Isotropic =    21.1059   Anisotropy =    13.4643

     63  H    Isotropic =    23.7476   Anisotropy =     2.9462

     64  H    Isotropic =    23.6434   Anisotropy =     6.7453

     65  H    Isotropic =    24.5401   Anisotropy =    12.5933

     66  H    Isotropic =    23.9410   Anisotropy =     7.0178

     67  H    Isotropic =    29.0956   Anisotropy =     8.6497

     68  H    Isotropic =    28.5239   Anisotropy =     7.9180

     69  H    Isotropic =    29.1230   Anisotropy =    10.0016

     70  H    Isotropic =    30.2835   Anisotropy =     8.3986

     71  H    Isotropic =    30.8269   Anisotropy =     6.7009

     72  H    Isotropic =    30.4471   Anisotropy =     8.2948

     73  H    Isotropic =    30.3179   Anisotropy =     5.0477

     74  H    Isotropic =    30.1906   Anisotropy =     8.5381

     75  H    Isotropic =    30.9075   Anisotropy =    10.4505

     76  H    Isotropic =    30.3718   Anisotropy =     9.1320

     77  H    Isotropic =    29.1725   Anisotropy =     3.8017

     78  H    Isotropic =    30.2678   Anisotropy =    10.5861

     79  H    Isotropic =    30.6871   Anisotropy =    10.8741

     80  H    Isotropic =    30.7046   Anisotropy =    11.3655

     81  H    Isotropic =    30.4035   Anisotropy =     8.7900

     82  H    Isotropic =    28.4369   Anisotropy =     7.3793

     83  H    Isotropic =    28.5933   Anisotropy =    13.1626

     84  H    Isotropic =    29.5160   Anisotropy =     9.9798

     85  H    Isotropic =    30.5217   Anisotropy =     7.5338

     86  H    Isotropic =    32.3760   Anisotropy =    22.8997

     87  H    Isotropic =    28.9042   Anisotropy =     9.6344

     88  H    Isotropic =    29.3655   Anisotropy =     6.3689

     89  H    Isotropic =    28.9743   Anisotropy =     9.5597

     90  H    Isotropic =    28.9964   Anisotropy =     7.8001

     91  H    Isotropic =    28.6182   Anisotropy =     7.0332

     92  H    Isotropic =    29.5043   Anisotropy =     9.7012

     93  H    Isotropic =    29.6397   Anisotropy =     5.8907

     94  H    Isotropic =    28.9320   Anisotropy =     5.4751

     95  H    Isotropic =    29.3264   Anisotropy =    10.9214

     96  H    Isotropic =    29.5613   Anisotropy =     9.2731

     97  H    Isotropic =    28.7403   Anisotropy =     7.1896

     98  H    Isotropic =    28.7763   Anisotropy =     9.6134

 Normal termination of Gaussian 16 at Mon Nov  1 20:10:51 2021.
 Gaussian 16:  ES64L-G16RevB.01 20-Dec-2017

 ----------------------------------------------------------------------
 # PBE1PBE gen pseudo=read int=(grid=ultrafine) empiricaldispersion=GD3
 BJ pop=nbo guess=read geom=check
 ----------------------------------------------------------------------

 -----
 title
 -----
 Structure from the checkpoint file:  "catASium_T2_2_SPE.chk"
 Charge =  0 Multiplicity = 1

                         Standard orientation:
 ---------------------------------------------------------------------
 Center     Atomic      Atomic             Coordinates (Angstroms)
 Number     Number       Type             X           Y           Z
 ---------------------------------------------------------------------
      1          6           0        3.161084   -0.865582   -0.614520
      2          6           0        4.162576   -0.058749   -0.039263
      3          6           0        5.514797   -0.414191   -0.147503
      4          6           0        5.842946   -1.597087   -0.837735
      5          6           0        4.859817   -2.423392   -1.403908
      6          6           0        3.508293   -2.047877   -1.282715
      7          6           0        1.090283   -1.319730    1.268940
      8          6           0        0.380103   -2.528730    1.238416
      9          6           0        0.134974   -3.249301    2.421804
     10          6           0        0.619484   -2.723882    3.630226
     11          6           0        1.353464   -1.521807    3.681591
     12          6           0        1.595890   -0.830454    2.485203
     13          6           0        1.335005    1.326824   -0.073783
     14          6           0        2.014393    2.299579   -1.034292
     15          6           0        2.105445    3.578996   -0.138475
     16          6           0        0.568493    3.516598    0.233501
     17          6           0        0.439056    2.037957    0.678270
     18          6           0        0.899289    2.678555   -2.063777
     19          6           0       -0.066592    3.534220   -1.209043
     20          6           0        3.060978    3.436235    1.057599
     21          6           0        2.525356    4.848325   -0.898797
     22          6           0       -0.007039    4.604011    1.130151
     23          6           0       -0.516219    1.450014    1.645788
     24          6           0       -0.447315    1.750448    3.001129
     25          6           0       -2.059571   -0.142308    2.514194
     26          6           0       -1.468673    0.366938    1.362096
     27          6           0        0.479619    2.668767    3.743014
     28          6           0       -3.010535   -1.274910    2.787854
     29          6           0       -2.752093    1.410590   -0.947488
     30          6           0       -3.293678    2.320282   -0.013941
     31          6           0       -3.938314    3.483165   -0.456607
     32          6           0       -4.047418    3.748150   -1.829320
     33          6           0       -3.519724    2.839898   -2.758244
     34          6           0       -2.874042    1.674065   -2.325942
     35          6           0       -3.283267   -1.339158   -0.237020
     36          6           0       -2.999872   -2.709251   -0.389903
     37          6           0       -4.016998   -3.658811   -0.239977
     38          6           0       -5.330194   -3.245305    0.032417
     39          6           0       -5.624661   -1.878712    0.136644
     40          6           0       -4.605588   -0.925375    0.001458
     41         15           0        1.397037   -0.460693   -0.326947
     42         15           0       -1.907399   -0.127254   -0.370131
     43         16           0       -1.505730    0.727076    3.923599
     44         46           0       -0.265015   -0.873187   -1.839105
     45         17           0        1.301200   -1.335731   -3.553009
     46         17           0       -2.045030   -1.439284   -3.338284
     47          1           0        3.890726    0.853828    0.500153
     48          6           0        6.593523    0.450767    0.463381
     49          1           0        6.898596   -1.879839   -0.938694
     50          6           0        5.227885   -3.683689   -2.150972
     51          1           0        2.728527   -2.657865   -1.746781
     52          1           0        0.003560   -2.898906    0.277777
     53          6           0       -0.637037   -4.548041    2.379713
     54          1           0        0.421087   -3.265088    4.564003
     55          6           0        1.824820   -0.964272    5.003813
     56          1           0        2.161211    0.107930    2.503852
     57          1           0       -4.840424    0.140787    0.078245
     58          1           0       -6.128076   -3.987498    0.137678
     59          1           0       -6.653412   -1.549959    0.317116
     60          1           0       -1.987786   -3.019035   -0.664616
     61          1           0       -3.788760   -4.722240   -0.365412
     62          1           0       -2.465219    0.960300   -3.048455
     63          1           0       -4.541649    4.662688   -2.173376
     64          1           0       -3.601866    3.039657   -3.831484
     65          1           0       -3.194514    2.128025    1.058538
     66          1           0       -4.349522    4.185860    0.275803
     67          1           0        0.900464    2.169620    4.633367
     68          1           0        1.319527    2.968063    3.101058
     69          1           0       -0.028910    3.586843    4.088716
     70          1           0       -4.051561   -1.028161    2.521701
     71          1           0       -2.733050   -2.172008    2.215413
     72          1           0       -2.985345   -1.537046    3.858416
     73          1           0       -1.040856    4.356799    1.428569
     74          1           0        0.583067    4.761395    2.047066
     75          1           0       -0.038877    5.563929    0.586737
     76          1           0        2.978130    4.307702    1.732320
     77          1           0        2.869246    2.526070    1.646753
     78          1           0        4.108177    3.397934    0.707157
     79          1           0        2.451133    5.731913   -0.239821
     80          1           0        3.580114    4.762918   -1.214801
     81          1           0        1.926904    5.048929   -1.798742
     82          1           0        2.950769    1.942506   -1.487546
     83          1           0        0.427781    1.770322   -2.477600
     84          1           0        1.324375    3.242876   -2.910730
     85          1           0       -0.117954    4.578002   -1.564428
     86          1           0       -1.092648    3.152589   -1.194312
     87          1           0        7.359372    0.726913   -0.283029
     88          1           0        6.174696    1.383028    0.877935
     89          1           0        7.117236   -0.074976    1.282632
     90          1           0        4.789752   -4.577102   -1.670822
     91          1           0        4.841978   -3.654028   -3.185265
     92          1           0        6.320301   -3.824176   -2.195664
     93          1           0        2.655309   -0.251506    4.867976
     94          1           0        1.004110   -0.426920    5.515698
     95          1           0        2.165886   -1.762908    5.684345
     96          1           0       -0.922444   -4.880954    3.391105
     97          1           0       -1.559258   -4.447170    1.779563
     98          1           0       -0.039474   -5.354823    1.917439
 ---------------------------------------------------------------------

 SCF Done:  E(RPBE1PBE) =  -3832.99028650     A.U. after    1 cycles

 The electronic state is 1-A.
 Alpha  occ. eigenvalues -- -101.60818-101.60813 -89.06144 -77.26637 -77.25912
 Alpha  occ. eigenvalues --  -10.28685 -10.27853 -10.26206 -10.26166 -10.25646
 Alpha  occ. eigenvalues --  -10.25555 -10.25438 -10.25389 -10.25359 -10.25264
 Alpha  occ. eigenvalues --  -10.25175 -10.25021 -10.24716 -10.24674 -10.24655
 Alpha  occ. eigenvalues --  -10.24612 -10.24480 -10.24476 -10.24430 -10.24356
 Alpha  occ. eigenvalues --  -10.24344 -10.24318 -10.24190 -10.24115 -10.24087
 Alpha  occ. eigenvalues --  -10.23978 -10.23969 -10.23930 -10.23889 -10.23843
 Alpha  occ. eigenvalues --  -10.23773 -10.23635 -10.23387 -10.23385 -10.23134
 Alpha  occ. eigenvalues --  -10.22867 -10.22725 -10.22653 -10.22300 -10.22136
 Alpha  occ. eigenvalues --  -10.21846 -10.21749 -10.21703 -10.21697  -9.43346
 Alpha  occ. eigenvalues --   -9.43320  -8.03970  -7.16529  -7.16527  -7.16083
 Alpha  occ. eigenvalues --   -7.16052  -7.16021  -7.15977  -6.65755  -6.65159
 Alpha  occ. eigenvalues --   -5.97551  -5.97214  -5.96988  -4.79361  -4.79322
 Alpha  occ. eigenvalues --   -4.79097  -4.78740  -4.78723  -4.78519  -3.51586
 Alpha  occ. eigenvalues --   -2.19275  -2.19201  -2.15887  -0.93171  -0.91610
 Alpha  occ. eigenvalues --   -0.89726  -0.89349  -0.88749  -0.88657  -0.82645
 Alpha  occ. eigenvalues --   -0.82139  -0.81575  -0.80859  -0.80563  -0.79696
 Alpha  occ. eigenvalues --   -0.78798  -0.78368  -0.78168  -0.77923  -0.77664
 Alpha  occ. eigenvalues --   -0.77565  -0.76182  -0.74375  -0.73793  -0.72960
 Alpha  occ. eigenvalues --   -0.72392  -0.71499  -0.71304  -0.71162  -0.70586
 Alpha  occ. eigenvalues --   -0.70081  -0.68890  -0.68748  -0.66865  -0.64831
 Alpha  occ. eigenvalues --   -0.63563  -0.63108  -0.62512  -0.61801  -0.60826
 Alpha  occ. eigenvalues --   -0.60308  -0.59919  -0.59090  -0.57237  -0.57143
 Alpha  occ. eigenvalues --   -0.56108  -0.54418  -0.54078  -0.53105  -0.52739
 Alpha  occ. eigenvalues --   -0.51777  -0.51441  -0.50425  -0.49491  -0.49483
 Alpha  occ. eigenvalues --   -0.48754  -0.48303  -0.47939  -0.47859  -0.47519
 Alpha  occ. eigenvalues --   -0.47085  -0.46505  -0.46167  -0.45658  -0.45431
 Alpha  occ. eigenvalues --   -0.45317  -0.44806  -0.44459  -0.44384  -0.44067
 Alpha  occ. eigenvalues --   -0.43937  -0.43825  -0.43571  -0.43427  -0.43153
 Alpha  occ. eigenvalues --   -0.42864  -0.42823  -0.42567  -0.42288  -0.42017
 Alpha  occ. eigenvalues --   -0.41824  -0.41803  -0.41423  -0.41331  -0.40860
 Alpha  occ. eigenvalues --   -0.40802  -0.40448  -0.39945  -0.39887  -0.39536
 Alpha  occ. eigenvalues --   -0.39458  -0.39122  -0.38875  -0.38653  -0.38481
 Alpha  occ. eigenvalues --   -0.37607  -0.37197  -0.37035  -0.36749  -0.36537
 Alpha  occ. eigenvalues --   -0.36442  -0.36221  -0.35990  -0.35826  -0.35453
 Alpha  occ. eigenvalues --   -0.35273  -0.35124  -0.34987  -0.34746  -0.34550
 Alpha  occ. eigenvalues --   -0.34348  -0.33891  -0.32828  -0.32415  -0.31095
 Alpha  occ. eigenvalues --   -0.30947  -0.30463  -0.29862  -0.29430  -0.29148
 Alpha  occ. eigenvalues --   -0.28310  -0.27784  -0.27584  -0.27134  -0.26482
 Alpha  occ. eigenvalues --   -0.26243  -0.26194  -0.25598  -0.25275  -0.24818
 Alpha  occ. eigenvalues --   -0.24470  -0.23691  -0.23539  -0.23092  -0.22523
 Alpha virt. eigenvalues --   -0.07490  -0.05181  -0.04263  -0.04050  -0.03619
 Alpha virt. eigenvalues --   -0.02486  -0.02213  -0.01919  -0.01645  -0.01137
 Alpha virt. eigenvalues --   -0.00487   0.00563   0.01192   0.01917   0.02488

 Mulliken charges:
               1
     1  C    0.202241
     2  C   -0.307040
     3  C    0.202113
     4  C   -0.275706
     5  C    0.208944
     6  C   -0.339849
     7  C    0.147861
     8  C   -0.256070
     9  C    0.145030
    10  C   -0.236102
    11  C    0.153180
    12  C   -0.196246
    13  C   -0.180907
    14  C    0.172116
    15  C    0.081953
    16  C    0.438372
    17  C   -0.306442
    18  C   -0.317315
    19  C   -0.265829
    20  C   -0.490395
    21  C   -0.416825
    22  C   -0.358098
    23  C    0.025409
    24  C   -0.079624
    25  C    0.125311
    26  C   -0.376900
    27  C   -0.408371
    28  C   -0.318882
    29  C   -0.049451
    30  C   -0.127858
    31  C   -0.155011
    32  C   -0.088105
    33  C   -0.156270
    34  C   -0.109102
    35  C    0.131022
    36  C   -0.201580
    37  C   -0.095947
    38  C   -0.106649
    39  C   -0.119797
    40  C   -0.236778
    41  P    0.241355
    42  P    0.302439
    43  S   -0.005394
    44  Pd   0.013510
    45  Cl  -0.427480
    46  Cl  -0.417438
    47  H    0.104152
    48  C   -0.440382
    49  H    0.103905
    50  C   -0.426983
    51  H    0.166810
    52  H    0.167579
    53  C   -0.422784
    54  H    0.102677
    55  C   -0.448284
    56  H    0.116432
    57  H    0.144426
    58  H    0.122773
    59  H    0.123072
    60  H    0.158609
    61  H    0.125770
    62  H    0.176178
    63  H    0.122930
    64  H    0.130512
    65  H    0.158760
    66  H    0.120147
    67  H    0.147976
    68  H    0.141707
    69  H    0.153637
    70  H    0.150687
    71  H    0.148795
    72  H    0.134879
    73  H    0.139570
    74  H    0.121399
    75  H    0.134165
    76  H    0.135285
    77  H    0.147838
    78  H    0.132539
    79  H    0.127018
    80  H    0.130190
    81  H    0.143827
    82  H    0.166741
    83  H    0.184444
    84  H    0.126369
    85  H    0.110947
    86  H    0.111525
    87  H    0.137772
    88  H    0.128372
    89  H    0.136785
    90  H    0.134690
    91  H    0.155871
    92  H    0.124784
    93  H    0.136504
    94  H    0.135573
    95  H    0.141968
    96  H    0.128092
    97  H    0.132671
    98  H    0.147685
 Sum of Mulliken charges =  -0.00000

 Dipole moment (field-independent basis, Debye):
    X=              0.1757    Y=              3.5557    Z=             10.7400  Tot=             11.3146
 Quadrupole moment (field-independent basis, Debye-Ang):
   XX=           -316.5914   YY=           -318.9158   ZZ=           -368.7238
   XY=             -0.1779   XZ=             -4.0540   YZ=            -17.4422

 Summary of Natural Population Analysis:

                                       Natural Population
                Natural  -----------------------------------------------
    Atom  No    Charge         Core      Valence    Rydberg      Total
 -----------------------------------------------------------------------
      C    1   -0.33592      1.99900     4.30295    0.03398     6.33592
      C    2   -0.22022      1.99900     4.20208    0.01914     6.22022
      C    3   -0.01874      1.99915     4.00190    0.01769     6.01874
      C    4   -0.19478      1.99903     4.17995    0.01579     6.19478
      C    5   -0.00681      1.99916     3.99035    0.01731     6.00681
      C    6   -0.17396      1.99902     4.15668    0.01826     6.17396
      C    7   -0.32286      1.99901     4.28788    0.03597     6.32286
      C    8   -0.20905      1.99898     4.19232    0.01775     6.20905
      C    9   -0.01146      1.99914     3.99457    0.01775     6.01146
      C   10   -0.20360      1.99902     4.18984    0.01474     6.20360
      C   11   -0.00657      1.99914     3.98888    0.01855     6.00657
      C   12   -0.20534      1.99898     4.18603    0.02033     6.20534
      C   13   -0.32374      1.99885     4.29068    0.03422     6.32374
      C   14   -0.27680      1.99927     4.25894    0.01859     6.27680
      C   15    0.01599      1.99939     3.96282    0.02179     5.98401
      C   16   -0.05946      1.99926     4.03510    0.02511     6.05946
      C   17    0.03571      1.99880     3.93832    0.02717     5.96429
      C   18   -0.40694      1.99942     4.39338    0.01414     6.40694
      C   19   -0.42302      1.99936     4.40861    0.01504     6.42302
      C   20   -0.63665      1.99937     4.62489    0.01239     6.63665
      C   21   -0.63320      1.99937     4.62119    0.01264     6.63320
      C   22   -0.63266      1.99937     4.61945    0.01384     6.63266
      C   23   -0.11976      1.99876     4.09316    0.02783     6.11976
      C   24   -0.16626      1.99899     4.13863    0.02863     6.16626
      C   25   -0.14412      1.99902     4.11472    0.03037     6.14412
      C   26   -0.38435      1.99876     4.34837    0.03721     6.38435
      C   27   -0.66084      1.99937     4.64747    0.01399     6.66084
      C   28   -0.66531      1.99936     4.65173    0.01423     6.66531
      C   29   -0.36564      1.99900     4.32974    0.03690     6.36564
      C   30   -0.21993      1.99908     4.20015    0.02070     6.21993
      C   31   -0.22258      1.99920     4.20473    0.01865     6.22258
      C   32   -0.19711      1.99922     4.17993    0.01796     6.19711
      C   33   -0.20765      1.99921     4.19084    0.01760     6.20765
      C   34   -0.18889      1.99911     4.17159    0.01819     6.18889
      C   35   -0.34075      1.99899     4.30570    0.03606     6.34075
      C   36   -0.17801      1.99909     4.15932    0.01960     6.17801
      C   37   -0.21535      1.99920     4.19826    0.01790     6.21535
      C   38   -0.19626      1.99922     4.17902    0.01802     6.19626
      C   39   -0.21460      1.99921     4.19755    0.01784     6.21460
      C   40   -0.20428      1.99908     4.18445    0.02076     6.20428
      P   41    1.21710      9.99531     3.73250    0.05510    13.78290
      P   42    1.18597      9.99567     3.76433    0.05402    13.81403
      S   43    0.44856      9.99872     5.52208    0.03064    15.55144
     Pd   44   -0.20331     35.98911    10.18596    0.02824    46.20331
     Cl   45   -0.40427      9.99963     7.39602    0.00862    17.40427
     Cl   46   -0.42633      9.99964     7.41822    0.00847    17.42633
      H   47    0.21741      0.00000     0.77974    0.00286     0.78259
      C   48   -0.63442      1.99944     4.62349    0.01149     6.63442
      H   49    0.20886      0.00000     0.78965    0.00149     0.79114
      C   50   -0.63699      1.99943     4.62623    0.01133     6.63699
      H   51    0.24847      0.00000     0.74988    0.00164     0.75153
      H   52    0.22921      0.00000     0.76885    0.00195     0.77079
      C   53   -0.63923      1.99943     4.62819    0.01161     6.63923
      H   54    0.21004      0.00000     0.78798    0.00197     0.78996
      C   55   -0.63921      1.99943     4.62758    0.01220     6.63921
      H   56    0.21819      0.00000     0.77847    0.00334     0.78181
      H   57    0.23127      0.00000     0.76660    0.00213     0.76873
      H   58    0.22133      0.00000     0.77751    0.00117     0.77867
      H   59    0.22216      0.00000     0.77661    0.00123     0.77784
      H   60    0.23650      0.00000     0.76162    0.00188     0.76350
      H   61    0.22430      0.00000     0.77443    0.00127     0.77570
      H   62    0.27221      0.00000     0.72621    0.00158     0.72779
      H   63    0.22116      0.00000     0.77768    0.00116     0.77884
      H   64    0.22696      0.00000     0.77183    0.00121     0.77304
      H   65    0.23193      0.00000     0.76559    0.00248     0.76807
      H   66    0.22149      0.00000     0.77721    0.00130     0.77851
      H   67    0.23059      0.00000     0.76801    0.00140     0.76941
      H   68    0.23975      0.00000     0.75881    0.00144     0.76025
      H   69    0.23308      0.00000     0.76548    0.00144     0.76692
      H   70    0.24284      0.00000     0.75528    0.00188     0.75716
      H   71    0.24743      0.00000     0.75037    0.00219     0.75257
      H   72    0.22776      0.00000     0.77094    0.00131     0.77224
      H   73    0.22580      0.00000     0.77283    0.00138     0.77420
      H   74    0.21128      0.00000     0.78713    0.00159     0.78872
      H   75    0.22153      0.00000     0.77723    0.00123     0.77847
      H   76    0.21445      0.00000     0.78412    0.00144     0.78555
      H   77    0.21410      0.00000     0.78454    0.00135     0.78590
      H   78    0.21893      0.00000     0.77958    0.00149     0.78107
      H   79    0.21518      0.00000     0.78355    0.00127     0.78482
      H   80    0.21965      0.00000     0.77915    0.00120     0.78035
      H   81    0.22021      0.00000     0.77866    0.00113     0.77979
      H   82    0.24407      0.00000     0.75403    0.00191     0.75593
      H   83    0.24245      0.00000     0.75610    0.00146     0.75755
      H   84    0.22195      0.00000     0.77669    0.00136     0.77805
      H   85    0.21457      0.00000     0.78394    0.00149     0.78543
      H   86    0.23725      0.00000     0.76036    0.00239     0.76275
      H   87    0.22480      0.00000     0.77415    0.00105     0.77520
      H   88    0.21643      0.00000     0.78251    0.00106     0.78357
      H   89    0.22408      0.00000     0.77482    0.00110     0.77592
      H   90    0.22507      0.00000     0.77386    0.00107     0.77493
      H   91    0.23562      0.00000     0.76327    0.00111     0.76438
      H   92    0.21568      0.00000     0.78338    0.00094     0.78432
      H   93    0.22024      0.00000     0.77877    0.00099     0.77976
      H   94    0.22565      0.00000     0.77266    0.00169     0.77435
      H   95    0.22530      0.00000     0.77370    0.00100     0.77470
      H   96    0.21997      0.00000     0.77912    0.00092     0.78003
      H   97    0.22640      0.00000     0.77231    0.00129     0.77360
      H   98    0.23031      0.00000     0.76857    0.00112     0.76969
 =======================================================================
   * Total *   -0.00000    173.94077   262.90055    1.15868   438.00000

 Normal termination of Gaussian 16 at Mon Nov  1 20:15:16 2021.
