 Gaussian 16, Revision B.01,

 ----------------------------------------------------------------------
 # PBE1PBE gen pseudo=read int=(grid=ultrafine) empiricaldispersion=GD3
 BJ nmr=giao
 ----------------------------------------------------------------------

 -----
 title
 -----
 Symbolic Z-matrix:
 Charge =  0 Multiplicity = 1

 SCF Done:  E(RPBE1PBE) =  -3469.40198459     A.U. after   22 cycles

      1  Pd   Isotropic =  -165.4771   Anisotropy =   235.8783

      2  P    Isotropic =   223.8173   Anisotropy =   144.1782

      3  C    Isotropic =    45.9815   Anisotropy =   179.1175

      4  C    Isotropic =    48.4709   Anisotropy =   185.4228

      5  C    Isotropic =    53.1969   Anisotropy =   157.6714

      6  C    Isotropic =    38.0858   Anisotropy =   203.2157

      7  C    Isotropic =    51.0849   Anisotropy =   170.2435

      8  C    Isotropic =    37.7758   Anisotropy =   202.7408

      9  H    Isotropic =    23.0678   Anisotropy =    12.3215

     10  H    Isotropic =    24.0243   Anisotropy =     8.4657

     11  C    Isotropic =   162.8459   Anisotropy =    41.7555

     12  H    Isotropic =    28.7762   Anisotropy =     9.4769

     13  H    Isotropic =    29.3316   Anisotropy =     7.9319

     14  H    Isotropic =    29.0481   Anisotropy =     8.5808

     15  H    Isotropic =    24.1021   Anisotropy =     8.3819

     16  H    Isotropic =    23.6796   Anisotropy =    13.9139

     17  C    Isotropic =    49.8603   Anisotropy =   183.9843

     18  C    Isotropic =    42.8162   Anisotropy =   197.5198

     19  C    Isotropic =    52.8038   Anisotropy =   163.7253

     20  C    Isotropic =    39.4706   Anisotropy =   205.5557

     21  C    Isotropic =    49.6380   Anisotropy =   177.3069

     22  C    Isotropic =    41.6070   Anisotropy =   189.7155

     23  H    Isotropic =    23.4902   Anisotropy =     7.9892

     24  H    Isotropic =    24.7458   Anisotropy =     8.3568

     25  C    Isotropic =   162.9206   Anisotropy =    41.1219

     26  H    Isotropic =    29.1716   Anisotropy =     9.1687

     27  H    Isotropic =    29.4161   Anisotropy =     9.2672

     28  H    Isotropic =    29.1131   Anisotropy =     6.8846

     29  H    Isotropic =    24.5372   Anisotropy =     6.8799

     30  H    Isotropic =    24.2527   Anisotropy =    10.0020

     31  C    Isotropic =    46.7055   Anisotropy =   169.3545

     32  C    Isotropic =    32.8911   Anisotropy =   175.2020

     33  C    Isotropic =    31.8631   Anisotropy =   174.2236

     34  C    Isotropic =    52.3688   Anisotropy =   178.6893

     35  C    Isotropic =    53.1059   Anisotropy =   184.4210

     36  C    Isotropic =    43.4069   Anisotropy =   195.4237

     37  H    Isotropic =    23.0182   Anisotropy =    10.5043

     38  H    Isotropic =    23.8579   Anisotropy =     5.0946

     39  H    Isotropic =    24.3382   Anisotropy =     4.1069

     40  C    Isotropic =   152.9740   Anisotropy =    28.9100

     41  H    Isotropic =    29.5381   Anisotropy =     7.4326

     42  C    Isotropic =   144.9011   Anisotropy =    40.8839

     43  H    Isotropic =    29.8844   Anisotropy =     7.1307

     44  H    Isotropic =    29.6564   Anisotropy =    10.2077

     45  C    Isotropic =   115.5473   Anisotropy =    39.2213

     46  C    Isotropic =    24.2678   Anisotropy =   186.8687

     47  C    Isotropic =    34.4138   Anisotropy =   174.2165

     48  C    Isotropic =    51.9724   Anisotropy =   180.5046

     49  C    Isotropic =    53.8206   Anisotropy =   182.1407

     50  C    Isotropic =    43.3052   Anisotropy =   193.5498

     51  C    Isotropic =    43.6375   Anisotropy =   174.1648

     52  P    Isotropic =   237.1853   Anisotropy =   124.3011

     53  C    Isotropic =    51.4194   Anisotropy =   178.3477

     54  C    Isotropic =    35.5627   Anisotropy =   204.3934

     55  C    Isotropic =    49.6107   Anisotropy =   175.1281

     56  C    Isotropic =    37.0545   Anisotropy =   207.4249

     57  C    Isotropic =    53.8846   Anisotropy =   160.0149

     58  C    Isotropic =    42.0613   Anisotropy =   194.0940

     59  H    Isotropic =    23.8381   Anisotropy =    10.9846

     60  H    Isotropic =    24.1705   Anisotropy =     7.1480

     61  C    Isotropic =   162.8532   Anisotropy =    41.3905

     62  H    Isotropic =    28.9493   Anisotropy =     7.3608

     63  H    Isotropic =    29.2421   Anisotropy =     7.9939

     64  H    Isotropic =    28.7507   Anisotropy =    10.4353

     65  H    Isotropic =    24.1953   Anisotropy =     8.7434

     66  H    Isotropic =    22.8186   Anisotropy =    10.4052

     67  C    Isotropic =    45.4876   Anisotropy =   183.9820

     68  C    Isotropic =    48.3107   Anisotropy =   188.2558

     69  C    Isotropic =    52.2167   Anisotropy =   160.2740

     70  C    Isotropic =    37.8717   Anisotropy =   203.1209

     71  C    Isotropic =    51.2568   Anisotropy =   168.1268

     72  C    Isotropic =    37.5227   Anisotropy =   189.2921

     73  H    Isotropic =    22.3833   Anisotropy =    13.9753

     74  H    Isotropic =    23.6775   Anisotropy =     8.8208

     75  C    Isotropic =   162.7924   Anisotropy =    41.6234

     76  H    Isotropic =    28.6915   Anisotropy =     9.2782

     77  H    Isotropic =    29.1894   Anisotropy =     8.3419

     78  H    Isotropic =    28.8836   Anisotropy =     8.4611

     79  H    Isotropic =    24.0826   Anisotropy =     8.1664

     80  H    Isotropic =    23.7749   Anisotropy =    14.0694

     81  Cl   Isotropic =   854.9528   Anisotropy =   449.4665

     82  H    Isotropic =    24.5826   Anisotropy =    14.0147

     83  H    Isotropic =    24.4606   Anisotropy =     5.4478

     84  H    Isotropic =    24.5539   Anisotropy =     4.0490

     85  C    Isotropic =   152.6335   Anisotropy =    28.9616

     86  H    Isotropic =    29.3635   Anisotropy =     7.7205

     87  C    Isotropic =   143.3996   Anisotropy =    42.4771

     88  H    Isotropic =    29.5402   Anisotropy =     7.3745

     89  H    Isotropic =    29.1887   Anisotropy =     6.6566

     90  H    Isotropic =    28.7193   Anisotropy =    11.2087

     91  H    Isotropic =    28.8618   Anisotropy =    11.3289

     92  Cl   Isotropic =   870.4859   Anisotropy =   322.9886

 Normal termination of Gaussian 16 at Tue Nov  2 12:15:18 2021.
 Gaussian 16:  ES64L-G16RevB.01 20-Dec-2017

 ----------------------------------------------------------------------
 # PBE1PBE gen pseudo=read int=(grid=ultrafine) empiricaldispersion=GD3
 BJ pop=nbo guess=read geom=check
 ----------------------------------------------------------------------

 -----
 title
 -----
 Structure from the checkpoint file:  "R-pTol-SDP_1_SPE.chk"
 Charge =  0 Multiplicity = 1

                         Standard orientation:
 ---------------------------------------------------------------------
 Center     Atomic      Atomic             Coordinates (Angstroms)
 Number     Number       Type             X           Y           Z
 ---------------------------------------------------------------------
      1         46           0        0.040779   -0.055308   -1.878915
      2         15           0       -1.737193    0.106550   -0.454357
      3          6           0       -3.455128    0.373402   -1.047591
      4          6           0       -4.294965    1.344921   -0.473828
      5          6           0       -5.649266    1.404077   -0.830521
      6          6           0       -6.196860    0.502634   -1.758920
      7          6           0       -5.346946   -0.473041   -2.317667
      8          6           0       -3.995356   -0.541238   -1.973526
      9          1           0       -3.348486   -1.291273   -2.435506
     10          1           0       -5.751032   -1.185542   -3.045910
     11          6           0       -7.648297    0.586339   -2.166362
     12          1           0       -7.753253    1.043450   -3.167791
     13          1           0       -8.233429    1.198280   -1.460165
     14          1           0       -8.111102   -0.414329   -2.220008
     15          1           0       -6.291277    2.168766   -0.377931
     16          1           0       -3.894546    2.062582    0.248697
     17          6           0       -2.067456   -1.281638    0.701754
     18          6           0       -3.130133   -1.242446    1.625542
     19          6           0       -3.413564   -2.358455    2.418828
     20          6           0       -2.673289   -3.549667    2.288721
     21          6           0       -1.661675   -3.600386    1.312347
     22          6           0       -1.360711   -2.484129    0.526846
     23          1           0       -0.572735   -2.533465   -0.231748
     24          1           0       -1.091700   -4.525627    1.173092
     25          6           0       -2.944306   -4.736458    3.180299
     26          1           0       -2.855383   -5.687763    2.628688
     27          1           0       -3.950795   -4.689875    3.627767
     28          1           0       -2.213848   -4.775407    4.010878
     29          1           0       -4.237286   -2.312594    3.140757
     30          1           0       -3.756825   -0.348128    1.702031
     31          6           0       -1.259885    1.724579    0.296399
     32          6           0       -0.498353    1.968926    1.458008
     33          6           0       -0.055407    3.285219    1.732999
     34          6           0       -0.318378    4.344040    0.862710
     35          6           0       -1.032538    4.092842   -0.317649
     36          6           0       -1.488894    2.802848   -0.599717
     37          1           0       -2.001907    2.611124   -1.548076
     38          1           0       -1.222958    4.898319   -1.033828
     39          1           0        0.050342    5.350373    1.089733
     40          6           0        0.694843    3.354361    3.042971
     41          1           0        1.617939    3.955197    2.964829
     42          6           0        0.986793    1.877283    3.364407
     43          1           0        0.980337    1.651842    4.443755
     44          1           0        1.976728    1.605969    2.973658
     45          6           0       -0.114494    1.050426    2.611497
     46          6           0        0.401376   -0.382813    2.418908
     47          6           0       -0.006427   -1.142399    3.542159
     48          6           0        0.463854   -2.438087    3.769432
     49          6           0        1.363514   -2.998036    2.857539
     50          6           0        1.738319   -2.281178    1.716104
     51          6           0        1.267728   -0.970801    1.455706
     52         15           0        1.675243   -0.277143   -0.232101
     53          6           0        2.540086    1.301965    0.096615
     54          6           0        2.286621    2.420979   -0.717360
     55          6           0        2.940225    3.630843   -0.466621
     56          6           0        3.872102    3.756592    0.581645
     57          6           0        4.127306    2.628559    1.384453
     58          6           0        3.466916    1.415450    1.151909
     59          1           0        3.657796    0.558130    1.807369
     60          1           0        4.845047    2.704213    2.209620
     61          6           0        4.588007    5.063529    0.826136
     62          1           0        3.907336    5.923996    0.706665
     63          1           0        5.023080    5.106185    1.838369
     64          1           0        5.413951    5.204353    0.104509
     65          1           0        2.719703    4.498159   -1.099032
     66          1           0        1.577533    2.332991   -1.545275
     67          6           0        2.943852   -1.457571   -0.848935
     68          6           0        4.311250   -1.340592   -0.553804
     69          6           0        5.213695   -2.313858   -1.003081
     70          6           0        4.779967   -3.423950   -1.748041
     71          6           0        3.405278   -3.530605   -2.040049
     72          6           0        2.500577   -2.558629   -1.609387
     73          1           0        1.442971   -2.628161   -1.887791
     74          1           0        3.043798   -4.377106   -2.635147
     75          6           0        5.759878   -4.453547   -2.257300
     76          1           0        5.991714   -4.283693   -3.325118
     77          1           0        6.712186   -4.416463   -1.702902
     78          1           0        5.352625   -5.476035   -2.174858
     79          1           0        6.280321   -2.202720   -0.775810
     80          1           0        4.684019   -0.480280    0.008421
     81         17           0        1.903011    0.240906   -3.344570
     82          1           0        2.404654   -2.761466    0.997340
     83          1           0        1.759054   -4.006923    3.013714
     84          1           0        0.128906   -3.000993    4.648260
     85          6           0       -0.962894   -0.374375    4.427520
     86          1           0       -1.847212   -0.978616    4.697345
     87          6           0       -1.327391    0.854282    3.574533
     88          1           0       -1.513982    1.765495    4.167266
     89          1           0       -2.232647    0.648821    2.983837
     90          1           0       -0.471345   -0.083343    5.376031
     91          1           0        0.066650    3.827607    3.823064
     92         17           0       -1.416480    0.308849   -3.712230
 ---------------------------------------------------------------------

 SCF Done:  E(RPBE1PBE) =  -3469.40198459     A.U. after    1 cycles

 The electronic state is 1-A.
 Alpha  occ. eigenvalues -- -101.60572-101.60311 -77.26093 -77.25945 -10.26388
 Alpha  occ. eigenvalues --  -10.26044 -10.25940 -10.25737 -10.25644 -10.25470
 Alpha  occ. eigenvalues --  -10.25234 -10.25226 -10.24854 -10.24824 -10.24712
 Alpha  occ. eigenvalues --  -10.24615 -10.24583 -10.24570 -10.24496 -10.24481
 Alpha  occ. eigenvalues --  -10.24453 -10.24358 -10.24305 -10.24191 -10.24089
 Alpha  occ. eigenvalues --  -10.24027 -10.23963 -10.23919 -10.23870 -10.23833
 Alpha  occ. eigenvalues --  -10.23809 -10.23792 -10.23703 -10.23584 -10.23570
 Alpha  occ. eigenvalues --  -10.23551 -10.23538 -10.23497 -10.23467 -10.23269
 Alpha  occ. eigenvalues --  -10.23234 -10.23139 -10.23106 -10.23083 -10.23058
 Alpha  occ. eigenvalues --  -10.22932 -10.22753 -10.22464 -10.22436  -9.43077
 Alpha  occ. eigenvalues --   -9.42828  -7.16287  -7.16028  -7.15809  -7.15733
 Alpha  occ. eigenvalues --   -7.15548  -7.15502  -6.65288  -6.65079  -4.78878
 Alpha  occ. eigenvalues --   -4.78858  -4.78678  -4.78638  -4.78631  -4.78436
 Alpha  occ. eigenvalues --   -3.51153  -2.18922  -2.18730  -2.15434  -0.92431
 Alpha  occ. eigenvalues --   -0.89749  -0.89670  -0.89160  -0.88447  -0.88376
 Alpha  occ. eigenvalues --   -0.85772  -0.83081  -0.82238  -0.81494  -0.80068
 Alpha  occ. eigenvalues --   -0.79887  -0.79360  -0.78140  -0.78026  -0.77484
 Alpha  occ. eigenvalues --   -0.76866  -0.76851  -0.74927  -0.74653  -0.74053
 Alpha  occ. eigenvalues --   -0.73301  -0.73068  -0.72509  -0.71972  -0.70802
 Alpha  occ. eigenvalues --   -0.70692  -0.66689  -0.66326  -0.65290  -0.63962
 Alpha  occ. eigenvalues --   -0.63562  -0.63111  -0.62719  -0.62503  -0.62320
 Alpha  occ. eigenvalues --   -0.60642  -0.60500  -0.60221  -0.60066  -0.58906
 Alpha  occ. eigenvalues --   -0.58148  -0.56919  -0.53882  -0.52300  -0.52038
 Alpha  occ. eigenvalues --   -0.50896  -0.50885  -0.50215  -0.49572  -0.49321
 Alpha  occ. eigenvalues --   -0.49120  -0.48879  -0.48599  -0.48121  -0.48109
 Alpha  occ. eigenvalues --   -0.47581  -0.47327  -0.46887  -0.46535  -0.46391
 Alpha  occ. eigenvalues --   -0.45308  -0.44706  -0.44452  -0.44347  -0.44030
 Alpha  occ. eigenvalues --   -0.43956  -0.43835  -0.43633  -0.43318  -0.43270
 Alpha  occ. eigenvalues --   -0.43253  -0.43171  -0.42745  -0.42322  -0.41665
 Alpha  occ. eigenvalues --   -0.41253  -0.41085  -0.40763  -0.40621  -0.40349
 Alpha  occ. eigenvalues --   -0.39965  -0.39911  -0.39392  -0.39137  -0.38850
 Alpha  occ. eigenvalues --   -0.38308  -0.38093  -0.37740  -0.37428  -0.37398
 Alpha  occ. eigenvalues --   -0.36960  -0.36683  -0.36516  -0.36261  -0.36180
 Alpha  occ. eigenvalues --   -0.35879  -0.35653  -0.35555  -0.35234  -0.35122
 Alpha  occ. eigenvalues --   -0.34922  -0.34512  -0.34229  -0.33955  -0.33754
 Alpha  occ. eigenvalues --   -0.32475  -0.30758  -0.30365  -0.29669  -0.29272
 Alpha  occ. eigenvalues --   -0.28504  -0.27779  -0.27402  -0.27237  -0.26964
 Alpha  occ. eigenvalues --   -0.26774  -0.26707  -0.26231  -0.25976  -0.25619
 Alpha  occ. eigenvalues --   -0.25128  -0.24876  -0.23871  -0.23756  -0.23117
 Alpha  occ. eigenvalues --   -0.22851  -0.22231
 Alpha virt. eigenvalues --   -0.07080  -0.04648  -0.04121  -0.03564  -0.03455
 Alpha virt. eigenvalues --   -0.02634  -0.02180  -0.02035  -0.01789  -0.01541
 Alpha virt. eigenvalues --   -0.01070  -0.00613  -0.00473   0.01319   0.02082

 Mulliken charges:
               1
     1  Pd   0.040687
     2  P    0.129744
     3  C    0.114282
     4  C   -0.172394
     5  C   -0.225525
     6  C    0.194426
     7  C   -0.201778
     8  C   -0.194008
     9  H    0.152707
    10  H    0.115405
    11  C   -0.414374
    12  H    0.144115
    13  H    0.129784
    14  H    0.135270
    15  H    0.111733
    16  H    0.150583
    17  C    0.049044
    18  C   -0.186911
    19  C   -0.249138
    20  C    0.225001
    21  C   -0.210954
    22  C   -0.047754
    23  H    0.134194
    24  H    0.107639
    25  C   -0.426568
    26  H    0.142441
    27  H    0.136469
    28  H    0.133846
    29  H    0.112207
    30  H    0.142276
    31  C   -0.049109
    32  C   -0.042154
    33  C    0.019097
    34  C   -0.214748
    35  C   -0.112977
    36  C   -0.158222
    37  H    0.167653
    38  H    0.125274
    39  H    0.106835
    40  C   -0.156240
    41  H    0.116013
    42  C   -0.221704
    43  H    0.105353
    44  H    0.107358
    45  C    0.490664
    46  C    0.000877
    47  C   -0.009001
    48  C   -0.188133
    49  C   -0.230795
    50  C   -0.041439
    51  C   -0.252412
    52  P    0.273245
    53  C    0.081066
    54  C   -0.102082
    55  C   -0.195401
    56  C    0.172432
    57  C   -0.197605
    58  C   -0.279179
    59  H    0.183988
    60  H    0.112580
    61  C   -0.421433
    62  H    0.134605
    63  H    0.130914
    64  H    0.148686
    65  H    0.111774
    66  H    0.218767
    67  C    0.008975
    68  C   -0.134141
    69  C   -0.232720
    70  C    0.201652
    71  C   -0.208219
    72  C   -0.070529
    73  H    0.166297
    74  H    0.115536
    75  C   -0.418536
    76  H    0.147240
    77  H    0.130781
    78  H    0.133135
    79  H    0.109609
    80  H    0.129974
    81  Cl  -0.397349
    82  H    0.156884
    83  H    0.113881
    84  H    0.108591
    85  C   -0.163124
    86  H    0.110403
    87  C   -0.219181
    88  H    0.112851
    89  H    0.092820
    90  H    0.111246
    91  H    0.105631
    92  Cl  -0.418707
 Sum of Mulliken charges =  -0.00000

 Dipole moment (field-independent basis, Debye):
    X=             -0.7698    Y=             -0.9720    Z=             11.5804  Tot=             11.6466
 Quadrupole moment (field-independent basis, Debye-Ang):
   XX=           -299.2374   YY=           -293.6518   ZZ=           -356.8338
   XY=              1.4044   XZ=              2.9303   YZ=              4.9812

 Summary of Natural Population Analysis:

                                       Natural Population
                Natural  -----------------------------------------------
    Atom  No    Charge         Core      Valence    Rydberg      Total
 -----------------------------------------------------------------------
     Pd    1   -0.20242     35.98863    10.18727    0.02652    46.20242
      P    2    1.19987      9.99544     3.75131    0.05337    13.80013
      C    3   -0.35233      1.99899     4.31838    0.03496     6.35233
      C    4   -0.21025      1.99910     4.19185    0.01929     6.21025
      C    5   -0.21906      1.99912     4.20280    0.01714     6.21906
      C    6   -0.00459      1.99916     3.98653    0.01890     6.00459
      C    7   -0.20794      1.99911     4.19230    0.01652     6.20794
      C    8   -0.16044      1.99911     4.14167    0.01967     6.16044
      H    9    0.24465      0.00000     0.75368    0.00167     0.75535
      H   10    0.21872      0.00000     0.77991    0.00137     0.78128
      C   11   -0.63912      1.99943     4.62783    0.01186     6.63912
      H   12    0.22987      0.00000     0.76895    0.00117     0.77013
      H   13    0.21869      0.00000     0.78027    0.00105     0.78131
      H   14    0.22380      0.00000     0.77512    0.00108     0.77620
      H   15    0.21513      0.00000     0.78343    0.00144     0.78487
      H   16    0.22770      0.00000     0.77047    0.00183     0.77230
      C   17   -0.37606      1.99897     4.34176    0.03533     6.37606
      C   18   -0.19051      1.99908     4.17147    0.01996     6.19051
      C   19   -0.22078      1.99910     4.20555    0.01613     6.22078
      C   20    0.00034      1.99915     3.98259    0.01791     5.99966
      C   21   -0.20619      1.99909     4.19020    0.01690     6.20619
      C   22   -0.16738      1.99908     4.14961    0.01869     6.16738
      H   23    0.23467      0.00000     0.76303    0.00230     0.76533
      H   24    0.21902      0.00000     0.77916    0.00182     0.78098
      C   25   -0.63894      1.99943     4.62800    0.01150     6.63894
      H   26    0.22639      0.00000     0.77261    0.00100     0.77361
      H   27    0.22219      0.00000     0.77685    0.00096     0.77781
      H   28    0.22502      0.00000     0.77363    0.00135     0.77498
      H   29    0.21591      0.00000     0.78257    0.00153     0.78409
      H   30    0.22825      0.00000     0.76937    0.00238     0.77175
      C   31   -0.34522      1.99890     4.31388    0.03245     6.34522
      C   32   -0.00577      1.99890     3.98092    0.02595     6.00577
      C   33   -0.00030      1.99907     3.98219    0.01905     6.00030
      C   34   -0.19429      1.99909     4.17780    0.01740     6.19429
      C   35   -0.20360      1.99920     4.18714    0.01726     6.20360
      C   36   -0.20475      1.99913     4.18627    0.01935     6.20475
      H   37    0.25290      0.00000     0.74538    0.00172     0.74710
      H   38    0.22601      0.00000     0.77286    0.00113     0.77399
      H   39    0.21958      0.00000     0.77911    0.00131     0.78042
      C   40   -0.44154      1.99938     4.42870    0.01346     6.44154
      H   41    0.23012      0.00000     0.76806    0.00182     0.76988
      C   42   -0.38722      1.99939     4.37460    0.01323     6.38722
      H   43    0.21467      0.00000     0.78408    0.00125     0.78533
      H   44    0.22950      0.00000     0.76870    0.00181     0.77050
      C   45   -0.09162      1.99926     4.07025    0.02211     6.09162
      C   46    0.02249      1.99889     3.95296    0.02565     5.97751
      C   47   -0.00639      1.99906     3.98913    0.01820     6.00639
      C   48   -0.19085      1.99906     4.17420    0.01759     6.19085
      C   49   -0.20870      1.99920     4.19202    0.01748     6.20870
      C   50   -0.21092      1.99912     4.19232    0.01948     6.21092
      C   51   -0.34907      1.99889     4.31603    0.03416     6.34907
      P   52    1.18168      9.99567     3.76842    0.05423    13.81832
      C   53   -0.38400      1.99898     4.34896    0.03605     6.38400
      C   54   -0.14755      1.99909     4.12902    0.01944     6.14755
      C   55   -0.20909      1.99910     4.19344    0.01655     6.20909
      C   56   -0.00061      1.99916     3.98421    0.01724     6.00061
      C   57   -0.22693      1.99910     4.21116    0.01668     6.22693
      C   58   -0.21258      1.99911     4.19322    0.02026     6.21258
      H   59    0.22886      0.00000     0.76921    0.00194     0.77114
      H   60    0.21531      0.00000     0.78322    0.00146     0.78469
      C   61   -0.64035      1.99943     4.62925    0.01167     6.64035
      H   62    0.22360      0.00000     0.77533    0.00107     0.77640
      H   63    0.21917      0.00000     0.77985    0.00099     0.78083
      H   64    0.23202      0.00000     0.76684    0.00114     0.76798
      H   65    0.21943      0.00000     0.77907    0.00150     0.78057
      H   66    0.25903      0.00000     0.73882    0.00215     0.74097
      C   67   -0.34684      1.99900     4.31221    0.03564     6.34684
      C   68   -0.19575      1.99909     4.17688    0.01978     6.19575
      C   69   -0.20898      1.99912     4.19328    0.01658     6.20898
      C   70   -0.00500      1.99916     3.98774    0.01809     6.00500
      C   71   -0.20998      1.99910     4.19397    0.01691     6.20998
      C   72   -0.17181      1.99908     4.15457    0.01816     6.17181
      H   73    0.23319      0.00000     0.76516    0.00166     0.76681
      H   74    0.21710      0.00000     0.78150    0.00140     0.78290
      C   75   -0.63926      1.99943     4.62803    0.01180     6.63926
      H   76    0.23135      0.00000     0.76747    0.00118     0.76865
      H   77    0.21955      0.00000     0.77942    0.00103     0.78045
      H   78    0.22236      0.00000     0.77660    0.00104     0.77764
      H   79    0.21560      0.00000     0.78303    0.00137     0.78440
      H   80    0.22621      0.00000     0.77201    0.00179     0.77379
     Cl   81   -0.40811      9.99963     7.40013    0.00834    17.40811
      H   82    0.23978      0.00000     0.75765    0.00258     0.76022
      H   83    0.22157      0.00000     0.77725    0.00118     0.77843
      H   84    0.21621      0.00000     0.78203    0.00176     0.78379
      C   85   -0.44426      1.99938     4.43133    0.01355     6.44426
      H   86    0.22945      0.00000     0.76881    0.00175     0.77055
      C   87   -0.38437      1.99939     4.37181    0.01317     6.38437
      H   88    0.21798      0.00000     0.78084    0.00118     0.78202
      H   89    0.21989      0.00000     0.77864    0.00147     0.78011
      H   90    0.22053      0.00000     0.77809    0.00137     0.77947
      H   91    0.21856      0.00000     0.78005    0.00138     0.78144
     Cl   92   -0.40217      9.99963     7.39401    0.00853    17.40217
 =======================================================================
   * Total *   -0.00000    165.94020   254.95728    1.10251   422.00000

 Normal termination of Gaussian 16 at Tue Nov  2 12:20:02 2021.
