 Gaussian 16, Revision B.01,

 ----------------------------------------------------------------------
 # PBE1PBE gen pseudo=read int=(grid=ultrafine) empiricaldispersion=GD3
 BJ nmr=giao
 ----------------------------------------------------------------------

 -----
 title
 -----
 Symbolic Z-matrix:
 Charge =  0 Multiplicity = 1

 SCF Done:  E(RPBE1PBE) =  -3469.38923035     A.U. after   22 cycles

      1  Pd   Isotropic =  -180.4273   Anisotropy =   273.6254

      2  P    Isotropic =   232.7862   Anisotropy =   137.7603

      3  C    Isotropic =    45.7508   Anisotropy =   176.5812

      4  C    Isotropic =    48.7764   Anisotropy =   185.0557

      5  C    Isotropic =    53.8517   Anisotropy =   157.0017

      6  C    Isotropic =    38.3598   Anisotropy =   203.8037

      7  C    Isotropic =    51.3066   Anisotropy =   169.4815

      8  C    Isotropic =    36.2479   Anisotropy =   206.0322

      9  H    Isotropic =    22.6531   Anisotropy =    12.2731

     10  H    Isotropic =    24.1261   Anisotropy =     8.7849

     11  C    Isotropic =   162.9931   Anisotropy =    41.6346

     12  H    Isotropic =    28.8437   Anisotropy =     9.6461

     13  H    Isotropic =    29.3664   Anisotropy =     7.9915

     14  H    Isotropic =    29.1126   Anisotropy =     8.3887

     15  H    Isotropic =    24.1848   Anisotropy =     8.3876

     16  H    Isotropic =    23.5548   Anisotropy =    14.3416

     17  C    Isotropic =    46.0618   Anisotropy =   183.1046

     18  C    Isotropic =    43.8718   Anisotropy =   195.8146

     19  C    Isotropic =    53.0574   Anisotropy =   164.8478

     20  C    Isotropic =    40.2326   Anisotropy =   204.2148

     21  C    Isotropic =    48.5525   Anisotropy =   177.2320

     22  C    Isotropic =    42.4167   Anisotropy =   191.7628

     23  H    Isotropic =    22.7258   Anisotropy =     9.1418

     24  H    Isotropic =    24.4963   Anisotropy =     8.2783

     25  C    Isotropic =   162.8952   Anisotropy =    41.4331

     26  H    Isotropic =    29.0496   Anisotropy =     7.5732

     27  H    Isotropic =    29.1730   Anisotropy =     8.8915

     28  H    Isotropic =    29.3663   Anisotropy =     9.2460

     29  H    Isotropic =    24.5982   Anisotropy =     7.0401

     30  H    Isotropic =    24.4875   Anisotropy =     9.6103

     31  C    Isotropic =    49.7026   Anisotropy =   166.1610

     32  C    Isotropic =    27.0746   Anisotropy =   182.7661

     33  C    Isotropic =    33.1192   Anisotropy =   176.0675

     34  C    Isotropic =    52.1363   Anisotropy =   181.5769

     35  C    Isotropic =    52.1786   Anisotropy =   187.8393

     36  C    Isotropic =    44.7146   Anisotropy =   195.0200

     37  H    Isotropic =    23.2590   Anisotropy =    10.6496

     38  H    Isotropic =    24.0604   Anisotropy =     4.3627

     39  H    Isotropic =    24.4881   Anisotropy =     4.0408

     40  C    Isotropic =   152.5537   Anisotropy =    29.2341

     41  H    Isotropic =    29.2846   Anisotropy =     7.8375

     42  C    Isotropic =   143.8870   Anisotropy =    43.0438

     43  H    Isotropic =    29.4724   Anisotropy =     7.3066

     44  H    Isotropic =    29.2137   Anisotropy =     6.5668

     45  C    Isotropic =   115.8007   Anisotropy =    39.1756

     46  C    Isotropic =    27.0766   Anisotropy =   182.7663

     47  C    Isotropic =    33.1187   Anisotropy =   176.0677

     48  C    Isotropic =    52.1354   Anisotropy =   181.5791

     49  C    Isotropic =    52.1744   Anisotropy =   187.8460

     50  C    Isotropic =    44.7145   Anisotropy =   195.0194

     51  C    Isotropic =    49.7040   Anisotropy =   166.1609

     52  P    Isotropic =   232.7869   Anisotropy =   137.7589

     53  C    Isotropic =    46.0621   Anisotropy =   183.1072

     54  C    Isotropic =    43.8685   Anisotropy =   195.8134

     55  C    Isotropic =    53.0530   Anisotropy =   164.7243

     56  C    Isotropic =    40.2329   Anisotropy =   204.2163

     57  C    Isotropic =    48.5510   Anisotropy =   177.3576

     58  C    Isotropic =    42.4218   Anisotropy =   191.7680

     59  H    Isotropic =    22.7258   Anisotropy =     9.1411

     60  H    Isotropic =    24.4956   Anisotropy =     8.2821

     61  C    Isotropic =   162.8960   Anisotropy =    41.4390

     62  H    Isotropic =    29.1679   Anisotropy =     8.9120

     63  H    Isotropic =    29.0491   Anisotropy =     7.5669

     64  H    Isotropic =    29.3719   Anisotropy =     9.2310

     65  H    Isotropic =    24.5990   Anisotropy =     7.0364

     66  H    Isotropic =    24.4878   Anisotropy =     9.6115

     67  C    Isotropic =    45.7514   Anisotropy =   176.5815

     68  C    Isotropic =    48.7789   Anisotropy =   185.0573

     69  C    Isotropic =    53.8521   Anisotropy =   157.0132

     70  C    Isotropic =    38.3594   Anisotropy =   203.8030

     71  C    Isotropic =    51.3067   Anisotropy =   169.4694

     72  C    Isotropic =    36.2474   Anisotropy =   206.0331

     73  H    Isotropic =    22.6531   Anisotropy =    12.2732

     74  H    Isotropic =    24.1262   Anisotropy =     8.7846

     75  C    Isotropic =   162.9926   Anisotropy =    41.6346

     76  H    Isotropic =    29.1130   Anisotropy =     8.3877

     77  H    Isotropic =    29.3660   Anisotropy =     7.9921

     78  H    Isotropic =    28.8437   Anisotropy =     9.6465

     79  H    Isotropic =    24.1847   Anisotropy =     8.3878

     80  H    Isotropic =    23.5548   Anisotropy =    14.3410

     81  Cl   Isotropic =   838.5285   Anisotropy =   470.4880

     82  H    Isotropic =    23.2588   Anisotropy =    10.6495

     83  H    Isotropic =    24.0607   Anisotropy =     4.3625

     84  H    Isotropic =    24.4883   Anisotropy =     4.0406

     85  C    Isotropic =   152.5544   Anisotropy =    29.2359

     86  H    Isotropic =    29.2846   Anisotropy =     7.8382

     87  C    Isotropic =   143.8857   Anisotropy =    43.0446

     88  H    Isotropic =    29.4724   Anisotropy =     7.3065

     89  H    Isotropic =    29.2135   Anisotropy =     6.5670

     90  H    Isotropic =    28.6393   Anisotropy =    11.2883

     91  H    Isotropic =    28.6395   Anisotropy =    11.2883

     92  Cl   Isotropic =   838.5848   Anisotropy =   470.5804

 Normal termination of Gaussian 16 at Tue Nov  2 11:50:44 2021.
 Gaussian 16:  ES64L-G16RevB.01 20-Dec-2017

 ----------------------------------------------------------------------
 # PBE1PBE gen pseudo=read int=(grid=ultrafine) empiricaldispersion=GD3
 BJ pop=nbo guess=read geom=check
 ----------------------------------------------------------------------

 -----
 title
 -----
 Structure from the checkpoint file:  "R-pTol-SDP_2_SPE.chk"
 Charge =  0 Multiplicity = 1

                         Standard orientation:
 ---------------------------------------------------------------------
 Center     Atomic      Atomic             Coordinates (Angstroms)
 Number     Number       Type             X           Y           Z
 ---------------------------------------------------------------------
      1         46           0        0.000068   -0.000362   -1.964407
      2         15           0       -1.659964    0.392562   -0.375929
      3          6           0       -3.332145    1.026433   -0.849650
      4          6           0       -4.088300    1.863796   -0.007240
      5          6           0       -5.427119    2.148987   -0.307564
      6          6           0       -6.051514    1.605418   -1.442649
      7          6           0       -5.294703    0.745922   -2.262352
      8          6           0       -3.958905    0.454720   -1.975977
      9          1           0       -3.395218   -0.210571   -2.633484
     10          1           0       -5.759355    0.297457   -3.147912
     11          6           0       -7.484087    1.938472   -1.782980
     12          1           0       -7.534919    2.698127   -2.585136
     13          1           0       -8.025363    2.342048   -0.911189
     14          1           0       -8.029412    1.050530   -2.146519
     15          1           0       -5.996764    2.806539    0.359602
     16          1           0       -3.641256    2.295510    0.892429
     17          6           0       -2.241417   -1.227644    0.282030
     18          6           0       -3.274679   -1.301267    1.237409
     19          6           0       -3.799602   -2.540518    1.613165
     20          6           0       -3.341006   -3.733824    1.019291
     21          6           0       -2.358529   -3.641403    0.018502
     22          6           0       -1.809079   -2.407357   -0.347353
     23          1           0       -1.046653   -2.349013   -1.133280
     24          1           0       -2.007931   -4.552272   -0.479611
     25          6           0       -3.882276   -5.074579    1.452473
     26          1           0       -3.243398   -5.522593    2.237543
     27          1           0       -3.912459   -5.789658    0.613310
     28          1           0       -4.899730   -4.988392    1.869014
     29          1           0       -4.599088   -2.583844    2.362207
     30          1           0       -3.697933   -0.383200    1.657774
     31          6           0       -1.091444    1.570385    0.923847
     32          6           0       -0.323996    1.304407    2.081441
     33          6           0        0.204073    2.386876    2.828207
     34          6           0       -0.017451    3.713907    2.458378
     35          6           0       -0.753797    3.980447    1.296459
     36          6           0       -1.257087    2.925306    0.532787
     37          1           0       -1.780823    3.150582   -0.401509
     38          1           0       -0.912542    5.011126    0.963784
     39          1           0        0.404902    4.531407    3.053255
     40          6           0        1.000233    1.905364    4.019670
     41          1           0        1.956869    2.447050    4.123413
     42          6           0        1.202327    0.407555    3.726706
     43          1           0        1.241521   -0.219116    4.633279
     44          1           0        2.142984    0.258588    3.177339
     45          6           0       -0.000049    0.000510    2.811580
     46          6           0        0.323938   -1.303636    2.081898
     47          6           0       -0.204197   -2.385847    2.828991
     48          6           0        0.017318   -3.713006    2.459617
     49          6           0        0.753741   -3.979950    1.297843
     50          6           0        1.257105   -2.925076    0.533851
     51          6           0        1.091450   -1.570021    0.924437
     52         15           0        1.660033   -0.392666   -0.375725
     53          6           0        2.241472    1.227751    0.281716
     54          6           0        3.274644    1.301693    1.237123
     55          6           0        3.799487    2.541113    1.612546
     56          6           0        3.340900    3.734191    1.018292
     57          6           0        2.358460    3.641436    0.017450
     58          6           0        1.809117    2.407279   -0.348063
     59          1           0        1.046727    2.348643   -1.134001
     60          1           0        2.007835    4.552140   -0.480954
     61          6           0        3.882059    5.075176    1.450914
     62          1           0        3.919624    5.787484    0.609661
     63          1           0        3.238612    5.527176    2.229934
     64          1           0        4.896399    4.988156    1.874758
     65          1           0        4.598882    2.584721    2.361664
     66          1           0        3.697894    0.383779    1.657825
     67          6           0        3.332202   -1.026720   -0.849221
     68          6           0        4.088343   -1.863832   -0.006550
     69          6           0        5.427156   -2.149141   -0.306790
     70          6           0        6.051552   -1.605945   -1.442055
     71          6           0        5.294753   -0.746693   -2.262025
     72          6           0        3.958959   -0.455381   -1.975738
     73          1           0        3.395284    0.209714   -2.633452
     74          1           0        5.759413   -0.298519   -3.147727
     75          6           0        7.484106   -1.939170   -1.782301
     76          1           0        8.029225   -1.051566   -2.146960
     77          1           0        8.025618   -2.341689   -0.910166
     78          1           0        7.534880   -2.699741   -2.583596
     79          1           0        5.996794   -2.806487    0.360586
     80          1           0        3.641296   -2.295242    0.893263
     81         17           0        1.326383   -1.004500   -3.657410
     82          1           0        1.780891   -3.150675   -0.400338
     83          1           0        0.912474   -5.010744    0.965520
     84          1           0       -0.405114   -4.530299    3.054720
     85          6           0       -1.000439   -1.903927    4.020233
     86          1           0       -1.957088   -2.445571    4.124092
     87          6           0       -1.202503   -0.406218    3.726744
     88          1           0       -1.241765    0.220762    4.633099
     89          1           0       -2.143117   -0.257426    3.177252
     90          1           0       -0.435161   -2.063800    4.959098
     91          1           0        0.434886    2.065552    4.958439
     92         17           0       -1.326178    1.003065   -3.657887
 ---------------------------------------------------------------------

 SCF Done:  E(RPBE1PBE) =  -3469.38923035     A.U. after    2 cycles

 The electronic state is 1-A.
 Alpha  occ. eigenvalues -- -101.60623-101.60623 -77.26295 -77.26295 -10.26742
 Alpha  occ. eigenvalues --  -10.26255 -10.26255 -10.25905 -10.25905 -10.25275
 Alpha  occ. eigenvalues --  -10.25274 -10.25200 -10.25200 -10.24928 -10.24928
 Alpha  occ. eigenvalues --  -10.24672 -10.24672 -10.24527 -10.24527 -10.24518
 Alpha  occ. eigenvalues --  -10.24518 -10.24411 -10.24411 -10.24368 -10.24368
 Alpha  occ. eigenvalues --  -10.24282 -10.24281 -10.24078 -10.24078 -10.24051
 Alpha  occ. eigenvalues --  -10.24051 -10.23912 -10.23912 -10.23731 -10.23731
 Alpha  occ. eigenvalues --  -10.23690 -10.23689 -10.23576 -10.23576 -10.23321
 Alpha  occ. eigenvalues --  -10.23321 -10.22994 -10.22993 -10.22953 -10.22953
 Alpha  occ. eigenvalues --  -10.22564 -10.22564 -10.22406 -10.22406  -9.43132
 Alpha  occ. eigenvalues --   -9.43132  -7.16343  -7.16343  -7.15862  -7.15861
 Alpha  occ. eigenvalues --   -7.15786  -7.15786  -6.65442  -6.65441  -4.79036
 Alpha  occ. eigenvalues --   -4.79036  -4.79017  -4.79017  -4.78780  -4.78780
 Alpha  occ. eigenvalues --   -3.51320  -2.18979  -2.18972  -2.15598  -0.92824
 Alpha  occ. eigenvalues --   -0.90143  -0.89404  -0.89376  -0.88315  -0.88244
 Alpha  occ. eigenvalues --   -0.86203  -0.83448  -0.82332  -0.81596  -0.80019
 Alpha  occ. eigenvalues --   -0.79857  -0.79508  -0.78477  -0.77681  -0.77669
 Alpha  occ. eigenvalues --   -0.76726  -0.76715  -0.75258  -0.75142  -0.74122
 Alpha  occ. eigenvalues --   -0.73406  -0.73164  -0.72655  -0.72242  -0.70655
 Alpha  occ. eigenvalues --   -0.70601  -0.66891  -0.66556  -0.65712  -0.63746
 Alpha  occ. eigenvalues --   -0.63679  -0.63276  -0.62897  -0.62413  -0.62253
 Alpha  occ. eigenvalues --   -0.60665  -0.60615  -0.60303  -0.60288  -0.59146
 Alpha  occ. eigenvalues --   -0.58267  -0.57028  -0.54207  -0.52341  -0.51660
 Alpha  occ. eigenvalues --   -0.51208  -0.51001  -0.50385  -0.49673  -0.49605
 Alpha  occ. eigenvalues --   -0.49149  -0.49106  -0.49002  -0.48129  -0.47937
 Alpha  occ. eigenvalues --   -0.47655  -0.47251  -0.47089  -0.46393  -0.46372
 Alpha  occ. eigenvalues --   -0.45451  -0.44772  -0.44547  -0.44338  -0.44169
 Alpha  occ. eigenvalues --   -0.44116  -0.43961  -0.43640  -0.43332  -0.43238
 Alpha  occ. eigenvalues --   -0.43125  -0.43109  -0.42875  -0.42585  -0.41493
 Alpha  occ. eigenvalues --   -0.41093  -0.41053  -0.40914  -0.40664  -0.40608
 Alpha  occ. eigenvalues --   -0.39957  -0.39942  -0.39483  -0.39411  -0.39260
 Alpha  occ. eigenvalues --   -0.38625  -0.38202  -0.38050  -0.37598  -0.37328
 Alpha  occ. eigenvalues --   -0.36978  -0.36758  -0.36625  -0.36318  -0.36253
 Alpha  occ. eigenvalues --   -0.35759  -0.35686  -0.35672  -0.35232  -0.35113
 Alpha  occ. eigenvalues --   -0.35044  -0.34440  -0.34407  -0.34128  -0.33938
 Alpha  occ. eigenvalues --   -0.32698  -0.31182  -0.30941  -0.29871  -0.29742
 Alpha  occ. eigenvalues --   -0.28711  -0.27981  -0.27394  -0.27355  -0.26846
 Alpha  occ. eigenvalues --   -0.26666  -0.26612  -0.26332  -0.25906  -0.25691
 Alpha  occ. eigenvalues --   -0.25444  -0.24445  -0.24406  -0.24078  -0.23186
 Alpha  occ. eigenvalues --   -0.22377  -0.22100
 Alpha virt. eigenvalues --   -0.07680  -0.04405  -0.04380  -0.04090  -0.03846
 Alpha virt. eigenvalues --   -0.02961  -0.02567  -0.02475  -0.01426  -0.01099
 Alpha virt. eigenvalues --   -0.00965  -0.00501  -0.00469   0.01500   0.02333

 Mulliken charges:
               1
     1  Pd   0.002569
     2  P    0.288310
     3  C    0.093486
     4  C   -0.178001
     5  C   -0.235999
     6  C    0.196860
     7  C   -0.223406
     8  C   -0.194115
     9  H    0.172030
    10  H    0.116916
    11  C   -0.414312
    12  H    0.143245
    13  H    0.129397
    14  H    0.136082
    15  H    0.110604
    16  H    0.155882
    17  C    0.034136
    18  C   -0.182057
    19  C   -0.257061
    20  C    0.232814
    21  C   -0.227261
    22  C   -0.066548
    23  H    0.239146
    24  H    0.109720
    25  C   -0.426811
    26  H    0.132322
    27  H    0.143357
    28  H    0.136725
    29  H    0.110187
    30  H    0.139066
    31  C   -0.096199
    32  C   -0.027530
    33  C    0.031385
    34  C   -0.214274
    35  C   -0.125601
    36  C   -0.257833
    37  H    0.186260
    38  H    0.120149
    39  H    0.107281
    40  C   -0.159253
    41  H    0.112011
    42  C   -0.219293
    43  H    0.111658
    44  H    0.097344
    45  C    0.467008
    46  C   -0.027632
    47  C    0.031468
    48  C   -0.214342
    49  C   -0.125532
    50  C   -0.257915
    51  C   -0.096076
    52  P    0.288307
    53  C    0.034112
    54  C   -0.182131
    55  C   -0.257109
    56  C    0.232812
    57  C   -0.227224
    58  C   -0.066407
    59  H    0.239141
    60  H    0.109729
    61  C   -0.426814
    62  H    0.143437
    63  H    0.132313
    64  H    0.136623
    65  H    0.110184
    66  H    0.139062
    67  C    0.093510
    68  C   -0.178011
    69  C   -0.235983
    70  C    0.196838
    71  C   -0.223387
    72  C   -0.194142
    73  H    0.172030
    74  H    0.116916
    75  C   -0.414313
    76  H    0.136081
    77  H    0.129401
    78  H    0.143245
    79  H    0.110604
    80  H    0.155882
    81  Cl  -0.425599
    82  H    0.186270
    83  H    0.120149
    84  H    0.107265
    85  C   -0.159236
    86  H    0.111991
    87  C   -0.219306
    88  H    0.111658
    89  H    0.097346
    90  H    0.109999
    91  H    0.110000
    92  Cl  -0.425608
 Sum of Mulliken charges =  -0.00000

 Dipole moment (field-independent basis, Debye):
    X=             -0.0008    Y=              0.0026    Z=             12.2835  Tot=             12.2835
 Quadrupole moment (field-independent basis, Debye-Ang):
   XX=           -294.1221   YY=           -301.0699   ZZ=           -358.8746
   XY=              7.2255   XZ=             -0.0032   YZ=             -0.0126

 Summary of Natural Population Analysis:

                                       Natural Population
                Natural  -----------------------------------------------
    Atom  No    Charge         Core      Valence    Rydberg      Total
 -----------------------------------------------------------------------
     Pd    1   -0.19657     35.98948    10.18445    0.02264    46.19657
      P    2    1.17875      9.99572     3.77320    0.05233    13.82125
      C    3   -0.34475      1.99898     4.31256    0.03322     6.34475
      C    4   -0.21432      1.99909     4.19541    0.01981     6.21432
      C    5   -0.22129      1.99911     4.20474    0.01744     6.22129
      C    6   -0.00419      1.99916     3.98619    0.01885     6.00419
      C    7   -0.20792      1.99911     4.19230    0.01650     6.20792
      C    8   -0.16319      1.99911     4.14424    0.01984     6.16319
      H    9    0.25349      0.00000     0.74475    0.00176     0.74651
      H   10    0.21952      0.00000     0.77911    0.00138     0.78048
      C   11   -0.63898      1.99943     4.62772    0.01182     6.63898
      H   12    0.22944      0.00000     0.76938    0.00118     0.77056
      H   13    0.21842      0.00000     0.78051    0.00106     0.78158
      H   14    0.22411      0.00000     0.77481    0.00108     0.77589
      H   15    0.21439      0.00000     0.78418    0.00143     0.78561
      H   16    0.22702      0.00000     0.77091    0.00207     0.77298
      C   17   -0.36457      1.99898     4.32980    0.03579     6.36457
      C   18   -0.19707      1.99908     4.17769    0.02030     6.19707
      C   19   -0.22069      1.99910     4.20546    0.01613     6.22069
      C   20   -0.00437      1.99915     3.98732    0.01790     6.00437
      C   21   -0.20577      1.99909     4.18929    0.01738     6.20577
      C   22   -0.16987      1.99907     4.15207    0.01873     6.16987
      H   23    0.24617      0.00000     0.75172    0.00211     0.75383
      H   24    0.21918      0.00000     0.77895    0.00187     0.78082
      C   25   -0.63821      1.99944     4.62729    0.01149     6.63821
      H   26    0.22329      0.00000     0.77541    0.00129     0.77671
      H   27    0.22609      0.00000     0.77293    0.00098     0.77391
      H   28    0.22246      0.00000     0.77655    0.00100     0.77754
      H   29    0.21503      0.00000     0.78347    0.00150     0.78497
      H   30    0.22602      0.00000     0.77172    0.00226     0.77398
      C   31   -0.35950      1.99889     4.32711    0.03350     6.35950
      C   32    0.01551      1.99890     3.95991    0.02569     5.98449
      C   33   -0.00065      1.99906     3.98323    0.01835     6.00065
      C   34   -0.19094      1.99907     4.17459    0.01728     6.19094
      C   35   -0.20435      1.99919     4.18808    0.01707     6.20435
      C   36   -0.20884      1.99913     4.18992    0.01979     6.20884
      H   37    0.24266      0.00000     0.75553    0.00181     0.75734
      H   38    0.22476      0.00000     0.77408    0.00115     0.77524
      H   39    0.21771      0.00000     0.78052    0.00177     0.78229
      C   40   -0.44353      1.99938     4.43064    0.01351     6.44353
      H   41    0.23043      0.00000     0.76780    0.00177     0.76957
      C   42   -0.38456      1.99939     4.37207    0.01310     6.38456
      H   43    0.21739      0.00000     0.78141    0.00121     0.78261
      H   44    0.22290      0.00000     0.77565    0.00145     0.77710
      C   45   -0.09374      1.99926     4.07228    0.02221     6.09374
      C   46    0.01551      1.99890     3.95991    0.02569     5.98449
      C   47   -0.00065      1.99906     3.98324    0.01835     6.00065
      C   48   -0.19094      1.99907     4.17459    0.01728     6.19094
      C   49   -0.20434      1.99919     4.18808    0.01707     6.20434
      C   50   -0.20884      1.99913     4.18992    0.01979     6.20884
      C   51   -0.35951      1.99889     4.32712    0.03350     6.35951
      P   52    1.17876      9.99572     3.77319    0.05233    13.82124
      C   53   -0.36457      1.99898     4.32980    0.03579     6.36457
      C   54   -0.19707      1.99908     4.17770    0.02030     6.19707
      C   55   -0.22071      1.99910     4.20547    0.01614     6.22071
      C   56   -0.00437      1.99915     3.98732    0.01790     6.00437
      C   57   -0.20574      1.99909     4.18928    0.01738     6.20574
      C   58   -0.16987      1.99907     4.15207    0.01873     6.16987
      H   59    0.24617      0.00000     0.75172    0.00211     0.75383
      H   60    0.21919      0.00000     0.77894    0.00187     0.78081
      C   61   -0.63822      1.99944     4.62729    0.01149     6.63822
      H   62    0.22616      0.00000     0.77285    0.00099     0.77384
      H   63    0.22330      0.00000     0.77541    0.00129     0.77670
      H   64    0.22238      0.00000     0.77663    0.00100     0.77762
      H   65    0.21503      0.00000     0.78347    0.00150     0.78497
      H   66    0.22602      0.00000     0.77172    0.00226     0.77398
      C   67   -0.34476      1.99898     4.31256    0.03322     6.34476
      C   68   -0.21432      1.99909     4.19541    0.01981     6.21432
      C   69   -0.22129      1.99911     4.20474    0.01744     6.22129
      C   70   -0.00419      1.99916     3.98618    0.01885     6.00419
      C   71   -0.20792      1.99911     4.19230    0.01651     6.20792
      C   72   -0.16318      1.99911     4.14423    0.01984     6.16318
      H   73    0.25349      0.00000     0.74475    0.00176     0.74651
      H   74    0.21952      0.00000     0.77911    0.00138     0.78048
      C   75   -0.63897      1.99943     4.62772    0.01182     6.63897
      H   76    0.22410      0.00000     0.77482    0.00108     0.77590
      H   77    0.21843      0.00000     0.78051    0.00106     0.78157
      H   78    0.22944      0.00000     0.76938    0.00118     0.77056
      H   79    0.21439      0.00000     0.78418    0.00143     0.78561
      H   80    0.22702      0.00000     0.77091    0.00207     0.77298
     Cl   81   -0.40257      9.99963     7.39411    0.00883    17.40257
      H   82    0.24266      0.00000     0.75553    0.00181     0.75734
      H   83    0.22477      0.00000     0.77408    0.00115     0.77523
      H   84    0.21771      0.00000     0.78052    0.00177     0.78229
      C   85   -0.44353      1.99938     4.43064    0.01351     6.44353
      H   86    0.23042      0.00000     0.76781    0.00177     0.76958
      C   87   -0.38456      1.99939     4.37207    0.01310     6.38456
      H   88    0.21739      0.00000     0.78141    0.00121     0.78261
      H   89    0.22290      0.00000     0.77565    0.00145     0.77710
      H   90    0.22053      0.00000     0.77810    0.00136     0.77947
      H   91    0.22053      0.00000     0.77811    0.00136     0.77947
     Cl   92   -0.40258      9.99963     7.39412    0.00882    17.40258
 =======================================================================
   * Total *   -0.00000    165.94128   254.96161    1.09711   422.00000

 Normal termination of Gaussian 16 at Tue Nov  2 11:56:58 2021.
