 Gaussian 16, Revision B.01,

 ----------------------------------------------------------------------
 # PBE1PBE/def2TZVP int=(grid=ultrafine) empiricaldispersion=GD3BJ nmr=
 giao
 ----------------------------------------------------------------------

 -----
 title
 -----
 Symbolic Z-matrix:
 Charge =  0 Multiplicity = 1

 SCF Done:  E(RPBE1PBE) =  -2421.20862992     A.U. after   15 cycles

      1  P    Isotropic =   289.7214   Anisotropy =    81.2175

      2  C    Isotropic =    34.4801   Anisotropy =   209.0339

      3  C    Isotropic =    47.0179   Anisotropy =   189.6292

      4  C    Isotropic =    51.1902   Anisotropy =   160.7630

      5  C    Isotropic =    42.0480   Anisotropy =   198.0289

      6  C    Isotropic =    50.9709   Anisotropy =   168.3028

      7  C    Isotropic =    45.5645   Anisotropy =   183.1031

      8  H    Isotropic =    24.0821   Anisotropy =    11.3197

      9  H    Isotropic =    24.2935   Anisotropy =     7.5624

     10  C    Isotropic =   163.1691   Anisotropy =    41.0673

     11  H    Isotropic =    28.9401   Anisotropy =     9.5929

     12  H    Isotropic =    29.3730   Anisotropy =     7.5124

     13  H    Isotropic =    29.1659   Anisotropy =     8.1856

     14  H    Isotropic =    24.1711   Anisotropy =     8.4153

     15  H    Isotropic =    23.0281   Anisotropy =    14.0574

     16  C    Isotropic =    39.3046   Anisotropy =   208.5997

     17  C    Isotropic =    41.4630   Anisotropy =   194.3359

     18  C    Isotropic =    54.3851   Anisotropy =   162.4606

     19  C    Isotropic =    42.6525   Anisotropy =   201.3459

     20  C    Isotropic =    49.5765   Anisotropy =   175.1717

     21  C    Isotropic =    44.4378   Anisotropy =   188.0643

     22  H    Isotropic =    23.8455   Anisotropy =     5.0042

     23  H    Isotropic =    24.6567   Anisotropy =     6.9211

     24  C    Isotropic =   162.9086   Anisotropy =    41.0582

     25  H    Isotropic =    29.0316   Anisotropy =     7.2279

     26  H    Isotropic =    29.2699   Anisotropy =     8.8086

     27  H    Isotropic =    29.4133   Anisotropy =     8.7917

     28  H    Isotropic =    24.7343   Anisotropy =     6.8736

     29  H    Isotropic =    24.2757   Anisotropy =     8.9094

     30  C    Isotropic =    43.8559   Anisotropy =   179.4205

     31  C    Isotropic =    25.4169   Anisotropy =   186.7290

     32  C    Isotropic =    32.9082   Anisotropy =   175.9105

     33  C    Isotropic =    56.5915   Anisotropy =   173.5576

     34  C    Isotropic =    53.5928   Anisotropy =   184.3587

     35  C    Isotropic =    47.5870   Anisotropy =   186.5454

     36  H    Isotropic =    23.4892   Anisotropy =    10.1491

     37  H    Isotropic =    24.2850   Anisotropy =     3.5528

     38  H    Isotropic =    24.7552   Anisotropy =     4.0079

     39  C    Isotropic =   152.9354   Anisotropy =    28.8336

     40  H    Isotropic =    29.3877   Anisotropy =     7.6023

     41  C    Isotropic =   143.9126   Anisotropy =    42.7583

     42  H    Isotropic =    29.5751   Anisotropy =     6.5534

     43  H    Isotropic =    29.2358   Anisotropy =     7.2318

     44  C    Isotropic =   116.6326   Anisotropy =    38.5814

     45  C    Isotropic =    25.4190   Anisotropy =   186.7282

     46  C    Isotropic =    32.9073   Anisotropy =   175.9110

     47  C    Isotropic =    56.5914   Anisotropy =   173.5582

     48  C    Isotropic =    53.5887   Anisotropy =   184.3657

     49  C    Isotropic =    47.5870   Anisotropy =   186.5443

     50  C    Isotropic =    43.8570   Anisotropy =   179.4207

     51  P    Isotropic =   289.7254   Anisotropy =    81.2138

     52  C    Isotropic =    39.3050   Anisotropy =   208.5993

     53  C    Isotropic =    41.4601   Anisotropy =   194.3313

     54  C    Isotropic =    54.3801   Anisotropy =   162.3369

     55  C    Isotropic =    42.6533   Anisotropy =   201.3472

     56  C    Isotropic =    49.5750   Anisotropy =   175.2964

     57  C    Isotropic =    44.4400   Anisotropy =   188.0719

     58  H    Isotropic =    23.8453   Anisotropy =     5.0033

     59  H    Isotropic =    24.6560   Anisotropy =     6.9249

     60  C    Isotropic =   162.9104   Anisotropy =    41.0631

     61  H    Isotropic =    29.2647   Anisotropy =     8.8283

     62  H    Isotropic =    29.0313   Anisotropy =     7.2234

     63  H    Isotropic =    29.4188   Anisotropy =     8.7755

     64  H    Isotropic =    24.7352   Anisotropy =     6.8693

     65  H    Isotropic =    24.2761   Anisotropy =     8.9105

     66  C    Isotropic =    34.4805   Anisotropy =   209.0333

     67  C    Isotropic =    47.0197   Anisotropy =   189.6300

     68  C    Isotropic =    51.1904   Anisotropy =   160.7764

     69  C    Isotropic =    42.0478   Anisotropy =   198.0292

     70  C    Isotropic =    50.9705   Anisotropy =   168.2913

     71  C    Isotropic =    45.5645   Anisotropy =   183.1010

     72  H    Isotropic =    24.0820   Anisotropy =    11.3198

     73  H    Isotropic =    24.2935   Anisotropy =     7.5621

     74  C    Isotropic =   163.1689   Anisotropy =    41.0668

     75  H    Isotropic =    29.1664   Anisotropy =     8.1847

     76  H    Isotropic =    29.3725   Anisotropy =     7.5129

     77  H    Isotropic =    28.9401   Anisotropy =     9.5932

     78  H    Isotropic =    24.1709   Anisotropy =     8.4156

     79  H    Isotropic =    23.0280   Anisotropy =    14.0568

     80  H    Isotropic =    23.4890   Anisotropy =    10.1492

     81  H    Isotropic =    24.2853   Anisotropy =     3.5526

     82  H    Isotropic =    24.7554   Anisotropy =     4.0077

     83  C    Isotropic =   152.9358   Anisotropy =    28.8356

     84  H    Isotropic =    29.3878   Anisotropy =     7.6029

     85  C    Isotropic =   143.9115   Anisotropy =    42.7592

     86  H    Isotropic =    29.5751   Anisotropy =     6.5532

     87  H    Isotropic =    29.2356   Anisotropy =     7.2319

     88  H    Isotropic =    28.7277   Anisotropy =    10.5994

     89  H    Isotropic =    28.7279   Anisotropy =    10.5995

 Normal termination of Gaussian 16 at Tue Nov  2 10:30:51 2021.
 Gaussian 16:  ES64L-G16RevB.01 20-Dec-2017

 ----------------------------------------------------------------------
 # PBE1PBE/def2TZVP int=(grid=ultrafine) empiricaldispersion=GD3BJ pop=
 nbo guess=read geom=check
 ----------------------------------------------------------------------

 -----
 title
 -----
 Structure from the checkpoint file:  "R-pTol-SDP_2_SPE_NoPd.chk"
 Charge =  0 Multiplicity = 1

                         Standard orientation:
 ---------------------------------------------------------------------
 Center     Atomic      Atomic             Coordinates (Angstroms)
 Number     Number       Type             X           Y           Z
 ---------------------------------------------------------------------
      1         15           0       -1.650424    0.430881   -1.003709
      2          6           0       -3.307494    1.103336   -1.477331
      3          6           0       -4.044070    1.957852   -0.634799
      4          6           0       -5.375934    2.273984   -0.935075
      5          6           0       -6.012741    1.745164   -2.070232
      6          6           0       -5.276020    0.868502   -2.890059
      7          6           0       -3.947316    0.546434   -2.603733
      8          1           0       -3.399174   -0.131630   -3.261336
      9          1           0       -5.750927    0.431032   -3.775679
     10          6           0       -7.437226    2.111320   -2.410507
     11          1           0       -7.470471    2.872060   -3.212558
     12          1           0       -7.969018    2.527190   -1.538657
     13          1           0       -8.002950    1.236284   -2.774166
     14          1           0       -5.930211    2.944447   -0.267814
     15          1           0       -3.587155    2.378983    0.264926
     16          6           0       -2.269205   -1.175530   -0.345971
     17          6           0       -3.303890   -1.225361    0.609404
     18          6           0       -3.857343   -2.452188    0.984991
     19          6           0       -3.426480   -3.655702    0.390948
     20          6           0       -2.442131   -3.585896   -0.609834
     21          6           0       -1.864278   -2.364842   -0.975521
     22          1           0       -1.100708   -2.324044   -1.761444
     23          1           0       -2.112702   -4.504564   -1.108076
     24          6           0       -3.998623   -4.983635    0.823947
     25          1           0       -3.370280   -5.446419    1.608951
     26          1           0       -4.045345   -5.697707   -0.015315
     27          1           0       -5.013810   -4.873989    1.240507
     28          1           0       -4.657616   -2.477109    1.734033
     29          1           0       -3.705789   -0.297806    1.029900
     30          6           0       -1.054801    1.595055    0.296228
     31          6           0       -0.293710    1.311231    1.453780
     32          6           0        0.259265    2.381089    2.200693
     33          6           0        0.068501    3.712942    1.831050
     34          6           0       -0.661485    3.996608    0.669173
     35          6           0       -1.189054    2.953500   -0.094643
     36          1           0       -1.707441    3.190963   -1.028904
     37          1           0       -0.796342    5.030730    0.336643
     38          1           0        0.509657    4.520369    2.426038
     39          6           0        1.044075    1.881120    3.392084
     40          1           0        2.012988    2.400514    3.495897
     41          6           0        1.211460    0.379077    3.098911
     42          1           0        1.236147   -0.248459    4.005397
     43          1           0        2.148418    0.208463    2.549517
     44          6           0       -0.000014    0.000086    2.183736
     45          6           0        0.293711   -1.311104    1.453870
     46          6           0       -0.259318   -2.380911    2.200816
     47          6           0       -0.068569   -3.712788    1.831257
     48          6           0        0.661477   -3.996537    0.669441
     49          6           0        1.189110   -2.953485   -0.094408
     50          6           0        1.054851   -1.595014    0.296368
     51         15           0        1.650518   -0.430948   -1.003635
     52          6           0        2.269293    1.175491   -0.345971
     53          6           0        3.303902    1.225376    0.609439
     54          6           0        3.857281    2.452271    0.985031
     55          6           0        3.426418    3.655722    0.390946
     56          6           0        2.442092    3.585860   -0.609903
     57          6           0        1.864341    2.364794   -0.975584
     58          1           0        1.100796    2.323922   -1.761526
     59          1           0        2.112629    4.504502   -1.108178
     60          6           0        3.998459    4.983766    0.823751
     61          1           0        4.052491    5.695132   -0.017403
     62          1           0        3.365644    5.450425    1.602838
     63          1           0        5.010515    4.873243    1.247577
     64          1           0        4.657474    2.477268    1.734150
     65          1           0        3.705803    0.297857    1.030011
     66          6           0        3.307568   -1.103454   -1.477229
     67          6           0        4.044142   -1.957953   -0.634680
     68          6           0        5.375994   -2.274120   -0.934967
     69          6           0        6.012788   -1.745356   -2.070161
     70          6           0        5.276068   -0.868712   -2.890006
     71          6           0        3.947372   -0.546612   -2.603670
     72          1           0        3.399233    0.131438   -3.261289
     73          1           0        5.750970   -0.431284   -3.775649
     74          6           0        7.437247   -2.111589   -2.410462
     75          1           0        8.002755   -1.236784   -2.775001
     76          1           0        7.969304   -2.526650   -1.538386
     77          1           0        7.470409   -2.873019   -3.211863
     78          1           0        5.930273   -2.944561   -0.267686
     79          1           0        3.587236   -2.379031    0.265076
     80          1           0        1.707534   -3.191012   -1.028632
     81          1           0        0.796318   -5.030681    0.336973
     82          1           0       -0.509795   -4.520172    2.426249
     83          6           0       -1.044193   -1.880863    3.392130
     84          1           0       -2.013117   -2.400244    3.495919
     85          6           0       -1.211554   -0.378840    3.098850
     86          1           0       -1.236296    0.248755    4.005294
     87          1           0       -2.148475   -0.208249    2.549385
     88          1           0       -0.482763   -2.053903    4.330969
     89          1           0        0.482588    2.054215    4.330879
 ---------------------------------------------------------------------

 SCF Done:  E(RPBE1PBE) =  -2421.20862992     A.U. after    1 cycles

 The electronic state is 1-A.
 Alpha  occ. eigenvalues --  -77.19537 -77.19537 -10.24609 -10.23912 -10.23912
 Alpha  occ. eigenvalues --  -10.23693 -10.23693 -10.23519 -10.23519 -10.23447
 Alpha  occ. eigenvalues --  -10.23447 -10.23080 -10.23080 -10.22990 -10.22990
 Alpha  occ. eigenvalues --  -10.22856 -10.22855 -10.22512 -10.22512 -10.22483
 Alpha  occ. eigenvalues --  -10.22482 -10.22456 -10.22456 -10.22426 -10.22426
 Alpha  occ. eigenvalues --  -10.22365 -10.22365 -10.22279 -10.22279 -10.22231
 Alpha  occ. eigenvalues --  -10.22230 -10.22229 -10.22228 -10.22219 -10.22219
 Alpha  occ. eigenvalues --  -10.22193 -10.22193 -10.22186 -10.22185 -10.22158
 Alpha  occ. eigenvalues --  -10.22158 -10.22108 -10.22108 -10.21974 -10.21974
 Alpha  occ. eigenvalues --  -10.21773 -10.21772  -6.59092  -6.59092  -4.72687
 Alpha  occ. eigenvalues --   -4.72687  -4.72671  -4.72671  -4.72234  -4.72233
 Alpha  occ. eigenvalues --   -0.90666  -0.88022  -0.87770  -0.87743  -0.87240
 Alpha  occ. eigenvalues --   -0.87148  -0.84135  -0.81415  -0.80353  -0.79857
 Alpha  occ. eigenvalues --   -0.78564  -0.78554  -0.77805  -0.76450  -0.76079
 Alpha  occ. eigenvalues --   -0.76009  -0.75905  -0.75903  -0.73241  -0.73156
 Alpha  occ. eigenvalues --   -0.72052  -0.71435  -0.70406  -0.69542  -0.69517
 Alpha  occ. eigenvalues --   -0.64608  -0.64105  -0.63770  -0.62113  -0.62008
 Alpha  occ. eigenvalues --   -0.61682  -0.61603  -0.60905  -0.60776  -0.59133
 Alpha  occ. eigenvalues --   -0.59067  -0.58617  -0.58518  -0.57529  -0.56451
 Alpha  occ. eigenvalues --   -0.54855  -0.52110  -0.50687  -0.50271  -0.49451
 Alpha  occ. eigenvalues --   -0.49108  -0.48533  -0.47742  -0.47616  -0.47459
 Alpha  occ. eigenvalues --   -0.47401  -0.47141  -0.46969  -0.46799  -0.45871
 Alpha  occ. eigenvalues --   -0.45655  -0.45597  -0.45305  -0.45263  -0.43647
 Alpha  occ. eigenvalues --   -0.43143  -0.42957  -0.42945  -0.42876  -0.42798
 Alpha  occ. eigenvalues --   -0.42646  -0.42493  -0.42485  -0.42332  -0.41987
 Alpha  occ. eigenvalues --   -0.41474  -0.40789  -0.40555  -0.39545  -0.39498
 Alpha  occ. eigenvalues --   -0.39430  -0.39331  -0.39160  -0.39101  -0.39061
 Alpha  occ. eigenvalues --   -0.38727  -0.37676  -0.37273  -0.36870  -0.36833
 Alpha  occ. eigenvalues --   -0.36709  -0.36500  -0.35563  -0.35417  -0.35308
 Alpha  occ. eigenvalues --   -0.34746  -0.34678  -0.34466  -0.34434  -0.34307
 Alpha  occ. eigenvalues --   -0.34209  -0.33461  -0.32449  -0.32429  -0.32419
 Alpha  occ. eigenvalues --   -0.32242  -0.31649  -0.28805  -0.27459  -0.26579
 Alpha  occ. eigenvalues --   -0.26177  -0.26033  -0.25957  -0.25646  -0.25522
 Alpha  occ. eigenvalues --   -0.25158  -0.24349  -0.23805  -0.22684  -0.21483
 Alpha  occ. eigenvalues --   -0.18883
 Alpha virt. eigenvalues --   -0.02704  -0.02543  -0.02440  -0.01794  -0.01270
 Alpha virt. eigenvalues --   -0.00908  -0.00843  -0.00463   0.00252   0.00326
 Alpha virt. eigenvalues --    0.00768   0.00855   0.03870   0.04271   0.05045

 Mulliken charges:
               1
     1  P    0.049917
     2  C    0.131771
     3  C   -0.182595
     4  C   -0.232037
     5  C    0.183761
     6  C   -0.188435
     7  C   -0.232497
     8  H    0.111943
     9  H    0.108523
    10  C   -0.411470
    11  H    0.136181
    12  H    0.129810
    13  H    0.132690
    14  H    0.107519
    15  H    0.156203
    16  C    0.110030
    17  C   -0.174859
    18  C   -0.262543
    19  C    0.226899
    20  C   -0.209308
    21  C   -0.082746
    22  H    0.130688
    23  H    0.097923
    24  C   -0.423090
    25  H    0.131342
    26  H    0.135690
    27  H    0.132927
    28  H    0.103216
    29  H    0.133326
    30  C   -0.060641
    31  C   -0.049781
    32  C    0.038055
    33  C   -0.236821
    34  C   -0.111167
    35  C   -0.282594
    36  H    0.150158
    37  H    0.108752
    38  H    0.098536
    39  C   -0.150804
    40  H    0.105926
    41  C   -0.228416
    42  H    0.105533
    43  H    0.096517
    44  C    0.525094
    45  C   -0.049878
    46  C    0.038134
    47  C   -0.236900
    48  C   -0.111086
    49  C   -0.282691
    50  C   -0.060514
    51  P    0.049918
    52  C    0.110023
    53  C   -0.174981
    54  C   -0.262546
    55  C    0.226920
    56  C   -0.209289
    57  C   -0.082610
    58  H    0.130696
    59  H    0.097925
    60  C   -0.423111
    61  H    0.135763
    62  H    0.131330
    63  H    0.132843
    64  H    0.103214
    65  H    0.133320
    66  C    0.131773
    67  C   -0.182595
    68  C   -0.232021
    69  C    0.183741
    70  C   -0.188420
    71  C   -0.232519
    72  H    0.111942
    73  H    0.108522
    74  C   -0.411471
    75  H    0.132687
    76  H    0.129815
    77  H    0.136184
    78  H    0.107520
    79  H    0.156205
    80  H    0.150165
    81  H    0.108753
    82  H    0.098518
    83  C   -0.150786
    84  H    0.105906
    85  C   -0.228431
    86  H    0.105533
    87  H    0.096518
    88  H    0.103426
    89  H    0.103427
 Sum of Mulliken charges =  -0.00000

 Dipole moment (field-independent basis, Debye):
    X=             -0.0005    Y=              0.0002    Z=              1.9973  Tot=              1.9973
 Quadrupole moment (field-independent basis, Debye-Ang):
   XX=           -269.7448   YY=           -269.1337   ZZ=           -281.5877
   XY=              3.2386   XZ=             -0.0025   YZ=             -0.0024

 Summary of Natural Population Analysis:

                                       Natural Population
                Natural  -----------------------------------------------
    Atom  No    Charge         Core      Valence    Rydberg      Total
 -----------------------------------------------------------------------
      P    1    0.83998      9.99776     4.13243    0.02984    14.16002
      C    2   -0.31768      1.99903     4.28829    0.03036     6.31768
      C    3   -0.22105      1.99910     4.20282    0.01913     6.22105
      C    4   -0.21212      1.99912     4.19579    0.01721     6.21212
      C    5   -0.02454      1.99916     4.00633    0.01905     6.02454
      C    6   -0.20716      1.99912     4.19158    0.01647     6.20716
      C    7   -0.19904      1.99912     4.18035    0.01956     6.19904
      H    8    0.22170      0.00000     0.77658    0.00173     0.77830
      H    9    0.21291      0.00000     0.78568    0.00141     0.78709
      C   10   -0.63610      1.99944     4.62490    0.01177     6.63610
      H   11    0.22391      0.00000     0.77487    0.00122     0.77609
      H   12    0.21865      0.00000     0.78029    0.00106     0.78135
      H   13    0.22134      0.00000     0.77755    0.00111     0.77866
      H   14    0.21128      0.00000     0.78724    0.00149     0.78872
      H   15    0.22832      0.00000     0.76970    0.00199     0.77168
      C   16   -0.33214      1.99900     4.30104    0.03210     6.33214
      C   17   -0.20100      1.99908     4.18228    0.01964     6.20100
      C   18   -0.22365      1.99910     4.20818    0.01637     6.22365
      C   19   -0.01430      1.99915     3.99665    0.01850     6.01430
      C   20   -0.20986      1.99909     4.19461    0.01616     6.20986
      C   21   -0.18293      1.99909     4.16331    0.02053     6.18293
      H   22    0.23256      0.00000     0.76567    0.00177     0.76744
      H   23    0.21287      0.00000     0.78556    0.00157     0.78713
      C   24   -0.63606      1.99944     4.62521    0.01142     6.63606
      H   25    0.22200      0.00000     0.77670    0.00130     0.77800
      H   26    0.22143      0.00000     0.77755    0.00103     0.77857
      H   27    0.22005      0.00000     0.77895    0.00100     0.77995
      H   28    0.21041      0.00000     0.78798    0.00161     0.78959
      H   29    0.22275      0.00000     0.77488    0.00237     0.77725
      C   30   -0.32697      1.99890     4.29826    0.02980     6.32697
      C   31   -0.00104      1.99890     3.97666    0.02548     6.00104
      C   32    0.00338      1.99906     3.97944    0.01811     5.99662
      C   33   -0.21201      1.99906     4.19599    0.01695     6.21201
      C   34   -0.20699      1.99919     4.19030    0.01749     6.20699
      C   35   -0.22630      1.99913     4.20702    0.02016     6.22630
      H   36    0.22819      0.00000     0.77003    0.00178     0.77181
      H   37    0.21780      0.00000     0.78102    0.00118     0.78220
      H   38    0.21338      0.00000     0.78472    0.00190     0.78662
      C   39   -0.44352      1.99938     4.43061    0.01353     6.44352
      H   40    0.22740      0.00000     0.77081    0.00179     0.77260
      C   41   -0.38527      1.99939     4.37282    0.01306     6.38527
      H   42    0.21417      0.00000     0.78461    0.00122     0.78583
      H   43    0.22297      0.00000     0.77558    0.00145     0.77703
      C   44   -0.09002      1.99926     4.06795    0.02282     6.09002
      C   45   -0.00104      1.99890     3.97666    0.02548     6.00104
      C   46    0.00338      1.99906     3.97945    0.01811     5.99662
      C   47   -0.21200      1.99906     4.19599    0.01695     6.21200
      C   48   -0.20698      1.99919     4.19029    0.01749     6.20698
      C   49   -0.22630      1.99913     4.20702    0.02016     6.22630
      C   50   -0.32697      1.99890     4.29827    0.02980     6.32697
      P   51    0.83998      9.99776     4.13243    0.02984    14.16002
      C   52   -0.33214      1.99900     4.30104    0.03210     6.33214
      C   53   -0.20100      1.99908     4.18229    0.01964     6.20100
      C   54   -0.22366      1.99910     4.20818    0.01637     6.22366
      C   55   -0.01430      1.99915     3.99664    0.01850     6.01430
      C   56   -0.20984      1.99909     4.19459    0.01616     6.20984
      C   57   -0.18293      1.99909     4.16331    0.02053     6.18293
      H   58    0.23256      0.00000     0.76567    0.00177     0.76744
      H   59    0.21288      0.00000     0.78555    0.00157     0.78712
      C   60   -0.63607      1.99944     4.62521    0.01142     6.63607
      H   61    0.22149      0.00000     0.77748    0.00103     0.77851
      H   62    0.22201      0.00000     0.77670    0.00130     0.77799
      H   63    0.21999      0.00000     0.77901    0.00100     0.78001
      H   64    0.21041      0.00000     0.78799    0.00161     0.78959
      H   65    0.22275      0.00000     0.77488    0.00237     0.77725
      C   66   -0.31768      1.99903     4.28830    0.03036     6.31768
      C   67   -0.22105      1.99910     4.20281    0.01913     6.22105
      C   68   -0.21212      1.99912     4.19579    0.01721     6.21212
      C   69   -0.02454      1.99916     4.00633    0.01905     6.02454
      C   70   -0.20716      1.99912     4.19158    0.01647     6.20716
      C   71   -0.19904      1.99912     4.18035    0.01956     6.19904
      H   72    0.22170      0.00000     0.77658    0.00173     0.77830
      H   73    0.21291      0.00000     0.78568    0.00141     0.78709
      C   74   -0.63610      1.99944     4.62490    0.01177     6.63610
      H   75    0.22134      0.00000     0.77756    0.00111     0.77866
      H   76    0.21865      0.00000     0.78028    0.00106     0.78135
      H   77    0.22391      0.00000     0.77487    0.00122     0.77609
      H   78    0.21128      0.00000     0.78723    0.00149     0.78872
      H   79    0.22832      0.00000     0.76970    0.00199     0.77168
      H   80    0.22819      0.00000     0.77003    0.00178     0.77181
      H   81    0.21780      0.00000     0.78102    0.00118     0.78220
      H   82    0.21338      0.00000     0.78472    0.00190     0.78662
      C   83   -0.44352      1.99938     4.43061    0.01353     6.44352
      H   84    0.22739      0.00000     0.77082    0.00179     0.77261
      C   85   -0.38527      1.99939     4.37281    0.01306     6.38527
      H   86    0.21417      0.00000     0.78461    0.00122     0.78583
      H   87    0.22297      0.00000     0.77558    0.00145     0.77703
      H   88    0.21728      0.00000     0.78132    0.00141     0.78272
      H   89    0.21728      0.00000     0.78132    0.00141     0.78272
 =======================================================================
   * Total *    0.00000    109.95686   231.05222    0.99092   342.00000

 Normal termination of Gaussian 16 at Tue Nov  2 10:33:38 2021.
