 Gaussian 16, Revision B.01,

 ----------------------------------------------------------------------
 # PBE1PBE/def2TZVP int=(grid=ultrafine) empiricaldispersion=GD3BJ nmr=
 giao
 ----------------------------------------------------------------------

 -----
 title
 -----
 Symbolic Z-matrix:
 Charge =  0 Multiplicity = 1

 SCF Done:  E(RPBE1PBE) =  -2421.21326142     A.U. after   15 cycles

      1  P    Isotropic =   289.2545   Anisotropy =    90.4186

      2  C    Isotropic =    34.7899   Anisotropy =   210.0622

      3  C    Isotropic =    44.8967   Anisotropy =   184.7910

      4  C    Isotropic =    50.9477   Anisotropy =   160.1569

      5  C    Isotropic =    41.9926   Anisotropy =   197.4702

      6  C    Isotropic =    50.8854   Anisotropy =   168.5413

      7  C    Isotropic =    45.9584   Anisotropy =   180.7080

      8  H    Isotropic =    23.9120   Anisotropy =    11.1805

      9  H    Isotropic =    24.1947   Anisotropy =     7.5526

     10  C    Isotropic =   163.0742   Anisotropy =    41.1087

     11  H    Isotropic =    28.8971   Anisotropy =     9.4424

     12  H    Isotropic =    29.3576   Anisotropy =     7.4805

     13  H    Isotropic =    29.0866   Anisotropy =     8.2800

     14  H    Isotropic =    24.1321   Anisotropy =     8.3709

     15  H    Isotropic =    23.1478   Anisotropy =    13.5354

     16  C    Isotropic =    41.5423   Anisotropy =   204.4978

     17  C    Isotropic =    40.8568   Anisotropy =   195.5927

     18  C    Isotropic =    54.1419   Anisotropy =   160.6014

     19  C    Isotropic =    42.0878   Anisotropy =   202.0601

     20  C    Isotropic =    50.5471   Anisotropy =   175.7417

     21  C    Isotropic =    42.3266   Anisotropy =   188.5813

     22  H    Isotropic =    23.7751   Anisotropy =     5.0517

     23  H    Isotropic =    24.9061   Anisotropy =     7.4114

     24  C    Isotropic =   162.9175   Anisotropy =    40.9281

     25  H    Isotropic =    29.2585   Anisotropy =     9.0057

     26  H    Isotropic =    29.4908   Anisotropy =     8.8636

     27  H    Isotropic =    29.0862   Anisotropy =     6.6250

     28  H    Isotropic =    24.6996   Anisotropy =     6.6246

     29  H    Isotropic =    24.1442   Anisotropy =     9.1018

     30  C    Isotropic =    41.2414   Anisotropy =   179.4126

     31  C    Isotropic =    28.9267   Anisotropy =   181.6767

     32  C    Isotropic =    31.8926   Anisotropy =   174.0956

     33  C    Isotropic =    56.5453   Anisotropy =   171.0581

     34  C    Isotropic =    55.0829   Anisotropy =   179.6130

     35  C    Isotropic =    48.8356   Anisotropy =   181.8249

     36  H    Isotropic =    23.4725   Anisotropy =    10.5032

     37  H    Isotropic =    24.1267   Anisotropy =     4.1210

     38  H    Isotropic =    24.5575   Anisotropy =     4.3333

     39  C    Isotropic =   153.2833   Anisotropy =    28.6310

     40  H    Isotropic =    29.6397   Anisotropy =     7.3973

     41  C    Isotropic =   145.2916   Anisotropy =    40.1170

     42  H    Isotropic =    29.9569   Anisotropy =     6.2752

     43  H    Isotropic =    29.7177   Anisotropy =    10.7728

     44  C    Isotropic =   116.5444   Anisotropy =    38.4563

     45  C    Isotropic =    24.6603   Anisotropy =   185.0781

     46  C    Isotropic =    34.9100   Anisotropy =   172.6474

     47  C    Isotropic =    56.4139   Anisotropy =   172.8476

     48  C    Isotropic =    54.2086   Anisotropy =   180.0655

     49  C    Isotropic =    46.6518   Anisotropy =   189.2150

     50  C    Isotropic =    37.9233   Anisotropy =   190.5987

     51  P    Isotropic =   298.8500   Anisotropy =    48.6122

     52  C    Isotropic =    45.9363   Anisotropy =   202.9966

     53  C    Isotropic =    43.4023   Anisotropy =   188.5007

     54  C    Isotropic =    50.0676   Anisotropy =   174.4513

     55  C    Isotropic =    39.4870   Anisotropy =   204.4290

     56  C    Isotropic =    52.5655   Anisotropy =   161.1781

     57  C    Isotropic =    39.8162   Anisotropy =   191.4899

     58  H    Isotropic =    23.6214   Anisotropy =    10.4855

     59  H    Isotropic =    24.1854   Anisotropy =     7.1823

     60  C    Isotropic =   162.9303   Anisotropy =    41.0124

     61  H    Isotropic =    28.9782   Anisotropy =     7.2396

     62  H    Isotropic =    29.2343   Anisotropy =     7.5095

     63  H    Isotropic =    28.8280   Anisotropy =    10.3019

     64  H    Isotropic =    24.3022   Anisotropy =     7.5058

     65  H    Isotropic =    24.1494   Anisotropy =     4.9905

     66  C    Isotropic =    45.2377   Anisotropy =   197.9805

     67  C    Isotropic =    45.0877   Anisotropy =   193.6285

     68  C    Isotropic =    49.5358   Anisotropy =   164.0284

     69  C    Isotropic =    39.3773   Anisotropy =   201.2618

     70  C    Isotropic =    51.4937   Anisotropy =   167.0725

     71  C    Isotropic =    42.7729   Anisotropy =   179.8299

     72  H    Isotropic =    23.0968   Anisotropy =    10.2808

     73  H    Isotropic =    23.7465   Anisotropy =     7.7817

     74  C    Isotropic =   162.8950   Anisotropy =    40.9248

     75  H    Isotropic =    28.7862   Anisotropy =     9.2809

     76  H    Isotropic =    29.1761   Anisotropy =     7.8505

     77  H    Isotropic =    28.8555   Anisotropy =     8.1012

     78  H    Isotropic =    23.9643   Anisotropy =     8.4703

     79  H    Isotropic =    23.6260   Anisotropy =    14.1674

     80  H    Isotropic =    25.0717   Anisotropy =    13.3083

     81  H    Isotropic =    24.6251   Anisotropy =     5.1613

     82  H    Isotropic =    24.8139   Anisotropy =     4.0204

     83  C    Isotropic =   152.9727   Anisotropy =    29.0196

     84  H    Isotropic =    29.4247   Anisotropy =     7.4496

     85  C    Isotropic =   143.5752   Anisotropy =    42.0057

     86  H    Isotropic =    29.6586   Anisotropy =     6.7640

     87  H    Isotropic =    29.2059   Anisotropy =     7.3356

     88  H    Isotropic =    28.8167   Anisotropy =    10.5614

     89  H    Isotropic =    28.9066   Anisotropy =    10.6385

 Normal termination of Gaussian 16 at Tue Nov  2 10:41:56 2021.
 Gaussian 16:  ES64L-G16RevB.01 20-Dec-2017

 ----------------------------------------------------------------------
 # PBE1PBE/def2TZVP int=(grid=ultrafine) empiricaldispersion=GD3BJ pop=
 nbo guess=read geom=check
 ----------------------------------------------------------------------

 -----
 title
 -----
 Structure from the checkpoint file:  "R-pTol-SDP_1_SPE_NoPd.chk"
 Charge =  0 Multiplicity = 1

                         Standard orientation:
 ---------------------------------------------------------------------
 Center     Atomic      Atomic             Coordinates (Angstroms)
 Number     Number       Type             X           Y           Z
 ---------------------------------------------------------------------
      1         15           0       -1.719933    0.093087   -1.041079
      2          6           0       -3.444782    0.341387   -1.622179
      3          6           0       -4.277817    1.331042   -1.069898
      4          6           0       -5.636249    1.379201   -1.412251
      5          6           0       -6.194749    0.448694   -2.304786
      6          6           0       -5.351460   -0.544639   -2.842047
      7          6           0       -3.995887   -0.602234   -2.511916
      8          1           0       -3.354494   -1.366879   -2.957282
      9          1           0       -5.764102   -1.279942   -3.542286
     10          6           0       -7.650911    0.519796   -2.697495
     11          1           0       -7.767737    0.944666   -3.711727
     12          1           0       -8.227674    1.154212   -2.004367
     13          1           0       -8.114268   -0.481923   -2.713615
     14          1           0       -6.272896    2.158190   -0.976797
     15          1           0       -3.868911    2.071322   -0.375495
     16          6           0       -2.036418   -1.257290    0.162685
     17          6           0       -3.088088   -1.188212    1.097256
     18          6           0       -3.362052   -2.278175    1.929143
     19          6           0       -2.623310   -3.473183    1.828468
     20          6           0       -1.623322   -3.555448    0.842316
     21          6           0       -1.331733   -2.464994    0.017993
     22          1           0       -0.552788   -2.538836   -0.747904
     23          1           0       -1.054989   -4.484858    0.726003
     24          6           0       -2.883695   -4.630750    2.760709
     25          1           0       -2.801259   -5.599246    2.238807
     26          1           0       -3.884819   -4.569543    3.218335
     27          1           0       -2.143454   -4.643344    3.583407
     28          1           0       -4.177173   -2.208968    2.658932
     29          1           0       -3.713875   -0.291698    1.152500
     30          6           0       -1.233852    1.734152   -0.348181
     31          6           0       -0.458636    2.015291    0.795923
     32          6           0       -0.012532    3.339562    1.023394
     33          6           0       -0.285839    4.370082    0.122844
     34          6           0       -1.013908    4.081481   -1.040340
     35          6           0       -1.473507    2.783272   -1.275567
     36          1           0       -1.997700    2.561471   -2.211169
     37          1           0       -1.212832    4.863694   -1.779622
     38          1           0        0.085492    5.383042    0.313172
     39          6           0        0.753169    3.450336    2.321515
     40          1           0        1.675245    4.048061    2.213271
     41          6           0        1.048977    1.984203    2.686571
     42          1           0        1.055308    1.793414    3.772581
     43          1           0        2.034231    1.700200    2.293018
     44          6           0       -0.061104    1.134042    1.973589
     45          6           0        0.452523   -0.304795    1.820867
     46          6           0        0.058081   -1.027918    2.972595
     47          6           0        0.531085   -2.315826    3.235629
     48          6           0        1.419916   -2.904961    2.331539
     49          6           0        1.781148   -2.225115    1.163396
     50          6           0        1.307441   -0.923585    0.866789
     51         15           0        1.694915   -0.284420   -0.847053
     52          6           0        2.563509    1.304113   -0.579288
     53          6           0        2.300371    2.396594   -1.425597
     54          6           0        2.956836    3.613646   -1.221450
     55          6           0        3.901050    3.772564   -0.188844
     56          6           0        4.165796    2.670712    0.646571
     57          6           0        3.502760    1.451001    0.460792
     58          1           0        3.701428    0.615029    1.141045
     59          1           0        4.893250    2.772493    1.460344
     60          6           0        4.619733    5.086419    0.005215
     61          1           0        3.937653    5.942848   -0.133665
     62          1           0        5.066756    5.161298    1.010346
     63          1           0        5.437071    5.203811   -0.730271
     64          1           0        2.728800    4.460356   -1.878635
     65          1           0        1.581536    2.282394   -2.241824
     66          6           0        2.956192   -1.484396   -1.440768
     67          6           0        4.326982   -1.358484   -1.165732
     68          6           0        5.224095   -2.345922   -1.594283
     69          6           0        4.781634   -3.479139   -2.298157
     70          6           0        3.403591   -3.594631   -2.570316
     71          6           0        2.504002   -2.609076   -2.160301
     72          1           0        1.443179   -2.687132   -2.423804
     73          1           0        3.035135   -4.459621   -3.133705
     74          6           0        5.755500   -4.524826   -2.785770
     75          1           0        5.974672   -4.389300   -3.861144
     76          1           0        6.714302   -4.470335   -2.244150
     77          1           0        5.349303   -5.544018   -2.665840
     78          1           0        6.293331   -2.227920   -1.383321
     79          1           0        4.706338   -0.480746   -0.635772
     80          1           0        2.438952   -2.728372    0.452534
     81          1           0        1.817328   -3.908465    2.515225
     82          1           0        0.206591   -2.850215    4.135921
     83          6           0       -0.887877   -0.231646    3.844183
     84          1           0       -1.768908   -0.826654    4.143649
     85          6           0       -1.262507    0.969209    2.956692
     86          1           0       -1.442114    1.898983    3.522131
     87          1           0       -2.174681    0.745252    2.383625
     88          1           0       -0.385149    0.089424    4.777013
     89          1           0        0.134230    3.948506    3.093443
 ---------------------------------------------------------------------

 SCF Done:  E(RPBE1PBE) =  -2421.21326142     A.U. after    1 cycles

 The electronic state is 1-A.
 Alpha  occ. eigenvalues --  -77.19403 -77.18896 -10.24314 -10.24298 -10.24298
 Alpha  occ. eigenvalues --  -10.23792 -10.23599 -10.23581 -10.23476 -10.23380
 Alpha  occ. eigenvalues --  -10.23232 -10.23219 -10.23206 -10.23128 -10.23035
 Alpha  occ. eigenvalues --  -10.22946 -10.22897 -10.22880 -10.22823 -10.22803
 Alpha  occ. eigenvalues --  -10.22802 -10.22693 -10.22602 -10.22592 -10.22520
 Alpha  occ. eigenvalues --  -10.22496 -10.22459 -10.22369 -10.22346 -10.22300
 Alpha  occ. eigenvalues --  -10.22283 -10.22222 -10.22120 -10.22086 -10.22080
 Alpha  occ. eigenvalues --  -10.22041 -10.22022 -10.21972 -10.21966 -10.21958
 Alpha  occ. eigenvalues --  -10.21938 -10.21920 -10.21862 -10.21847 -10.21633
 Alpha  occ. eigenvalues --  -10.21522 -10.21354  -6.58967  -6.58488  -4.72556
 Alpha  occ. eigenvalues --   -4.72550  -4.72111  -4.72088  -4.72062  -4.71624
 Alpha  occ. eigenvalues --   -0.90336  -0.88311  -0.87903  -0.87607  -0.87582
 Alpha  occ. eigenvalues --   -0.87041  -0.83752  -0.81148  -0.80432  -0.79779
 Alpha  occ. eigenvalues --   -0.79203  -0.78446  -0.77513  -0.76702  -0.76482
 Alpha  occ. eigenvalues --   -0.76103  -0.75870  -0.75765  -0.72927  -0.72791
 Alpha  occ. eigenvalues --   -0.72083  -0.71393  -0.70279  -0.70055  -0.69398
 Alpha  occ. eigenvalues --   -0.64428  -0.63910  -0.63416  -0.62694  -0.62062
 Alpha  occ. eigenvalues --   -0.61883  -0.61527  -0.60874  -0.60605  -0.59701
 Alpha  occ. eigenvalues --   -0.58957  -0.58402  -0.58264  -0.57253  -0.56413
 Alpha  occ. eigenvalues --   -0.54769  -0.51818  -0.51142  -0.50376  -0.49217
 Alpha  occ. eigenvalues --   -0.49071  -0.48437  -0.47996  -0.47599  -0.47437
 Alpha  occ. eigenvalues --   -0.47291  -0.47205  -0.46799  -0.46732  -0.46083
 Alpha  occ. eigenvalues --   -0.45878  -0.45539  -0.45421  -0.45026  -0.43681
 Alpha  occ. eigenvalues --   -0.43443  -0.43226  -0.43165  -0.42859  -0.42836
 Alpha  occ. eigenvalues --   -0.42771  -0.42488  -0.42414  -0.42296  -0.41814
 Alpha  occ. eigenvalues --   -0.41316  -0.40786  -0.40266  -0.40130  -0.39860
 Alpha  occ. eigenvalues --   -0.39583  -0.39349  -0.39200  -0.38987  -0.38709
 Alpha  occ. eigenvalues --   -0.38508  -0.37568  -0.37100  -0.37006  -0.36732
 Alpha  occ. eigenvalues --   -0.36487  -0.36389  -0.36054  -0.35339  -0.35198
 Alpha  occ. eigenvalues --   -0.35089  -0.34733  -0.34431  -0.34334  -0.34302
 Alpha  occ. eigenvalues --   -0.34125  -0.33060  -0.32818  -0.32342  -0.32309
 Alpha  occ. eigenvalues --   -0.32045  -0.31443  -0.28302  -0.27130  -0.26661
 Alpha  occ. eigenvalues --   -0.26257  -0.26135  -0.25834  -0.25736  -0.25593
 Alpha  occ. eigenvalues --   -0.25163  -0.24463  -0.23912  -0.22907  -0.21456
 Alpha  occ. eigenvalues --   -0.18548
 Alpha virt. eigenvalues --   -0.02917  -0.02486  -0.02252  -0.01984  -0.01416
 Alpha virt. eigenvalues --   -0.00939  -0.00758  -0.00549  -0.00149   0.00145
 Alpha virt. eigenvalues --    0.00658   0.01082   0.03910   0.04415   0.05004

 Mulliken charges:
               1
     1  P    0.042960
     2  C    0.105371
     3  C   -0.182609
     4  C   -0.217595
     5  C    0.182942
     6  C   -0.184672
     7  C   -0.222564
     8  H    0.109481
     9  H    0.107981
    10  C   -0.411485
    11  H    0.135535
    12  H    0.129436
    13  H    0.132500
    14  H    0.106929
    15  H    0.148778
    16  C    0.090890
    17  C   -0.157100
    18  C   -0.267377
    19  C    0.233122
    20  C   -0.221403
    21  C   -0.039347
    22  H    0.105664
    23  H    0.096329
    24  C   -0.423826
    25  H    0.135584
    26  H    0.131678
    27  H    0.131715
    28  H    0.102924
    29  H    0.133543
    30  C   -0.052064
    31  C   -0.064079
    32  C    0.032322
    33  C   -0.235200
    34  C   -0.107667
    35  C   -0.249748
    36  H    0.134493
    37  H    0.110862
    38  H    0.097968
    39  C   -0.153202
    40  H    0.109582
    41  C   -0.234435
    42  H    0.100956
    43  H    0.105303
    44  C    0.552798
    45  C    0.072046
    46  C   -0.001813
    47  C   -0.190798
    48  C   -0.244573
    49  C   -0.033598
    50  C   -0.324742
    51  P    0.074215
    52  C    0.155351
    53  C   -0.158741
    54  C   -0.169253
    55  C    0.159046
    56  C   -0.187367
    57  C   -0.280207
    58  H    0.183015
    59  H    0.108854
    60  C   -0.420572
    61  H    0.133318
    62  H    0.131137
    63  H    0.141807
    64  H    0.104164
    65  H    0.127531
    66  C    0.034540
    67  C   -0.128291
    68  C   -0.224153
    69  C    0.188085
    70  C   -0.189950
    71  C   -0.176964
    72  H    0.139124
    73  H    0.111863
    74  C   -0.415441
    75  H    0.139466
    76  H    0.132339
    77  H    0.133862
    78  H    0.108576
    79  H    0.127436
    80  H    0.137057
    81  H    0.102489
    82  H    0.099596
    83  C   -0.162311
    84  H    0.105103
    85  C   -0.227548
    86  H    0.105421
    87  H    0.092979
    88  H    0.103858
    89  H    0.100767
 Sum of Mulliken charges =  -0.00000

 Dipole moment (field-independent basis, Debye):
    X=              1.0462    Y=             -0.0772    Z=              1.5319  Tot=              1.8567
 Quadrupole moment (field-independent basis, Debye-Ang):
   XX=           -268.8987   YY=           -264.0199   ZZ=           -283.0464
   XY=              1.0520   XZ=             -1.4634   YZ=              2.7953

 Summary of Natural Population Analysis:

                                       Natural Population
                Natural  -----------------------------------------------
    Atom  No    Charge         Core      Valence    Rydberg      Total
 -----------------------------------------------------------------------
      P    1    0.84071      9.99774     4.13112    0.03043    14.15929
      C    2   -0.32802      1.99904     4.29784    0.03113     6.32802
      C    3   -0.21796      1.99910     4.19960    0.01926     6.21796
      C    4   -0.21278      1.99912     4.19639    0.01726     6.21278
      C    5   -0.02558      1.99916     4.00738    0.01904     6.02558
      C    6   -0.20768      1.99912     4.19208    0.01648     6.20768
      C    7   -0.19837      1.99912     4.17953    0.01973     6.19837
      H    8    0.22174      0.00000     0.77649    0.00177     0.77826
      H    9    0.21252      0.00000     0.78608    0.00141     0.78748
      C   10   -0.63607      1.99944     4.62486    0.01177     6.63607
      H   11    0.22353      0.00000     0.77525    0.00122     0.77647
      H   12    0.21833      0.00000     0.78062    0.00106     0.78167
      H   13    0.22124      0.00000     0.77765    0.00111     0.77876
      H   14    0.21109      0.00000     0.78742    0.00149     0.78891
      H   15    0.22650      0.00000     0.77150    0.00201     0.77350
      C   16   -0.33988      1.99899     4.30937    0.03152     6.33988
      C   17   -0.19718      1.99908     4.17836    0.01974     6.19718
      C   18   -0.22459      1.99910     4.20929    0.01620     6.22459
      C   19   -0.01028      1.99915     3.99301    0.01813     6.01028
      C   20   -0.21059      1.99908     4.19454    0.01697     6.21059
      C   21   -0.17740      1.99910     4.15796    0.02035     6.17740
      H   22    0.22650      0.00000     0.77097    0.00253     0.77350
      H   23    0.21371      0.00000     0.78439    0.00190     0.78629
      C   24   -0.63642      1.99943     4.62559    0.01140     6.63642
      H   25    0.22193      0.00000     0.77704    0.00103     0.77807
      H   26    0.21911      0.00000     0.77991    0.00097     0.78089
      H   27    0.22306      0.00000     0.77561    0.00133     0.77694
      H   28    0.21024      0.00000     0.78821    0.00155     0.78976
      H   29    0.22352      0.00000     0.77411    0.00237     0.77648
      C   30   -0.31514      1.99890     4.28679    0.02945     6.31514
      C   31   -0.01486      1.99889     3.99116    0.02481     6.01486
      C   32    0.00305      1.99907     3.97960    0.01828     5.99695
      C   33   -0.21671      1.99907     4.19985    0.01778     6.21671
      C   34   -0.20900      1.99920     4.19285    0.01696     6.20900
      C   35   -0.22335      1.99914     4.20508    0.01913     6.22335
      H   36    0.22835      0.00000     0.77015    0.00150     0.77165
      H   37    0.21695      0.00000     0.78186    0.00119     0.78305
      H   38    0.21315      0.00000     0.78533    0.00152     0.78685
      C   39   -0.44198      1.99939     4.42915    0.01345     6.44198
      H   40    0.22606      0.00000     0.77216    0.00178     0.77394
      C   41   -0.38766      1.99939     4.37505    0.01322     6.38766
      H   42    0.21262      0.00000     0.78611    0.00126     0.78738
      H   43    0.22753      0.00000     0.77073    0.00173     0.77247
      C   44   -0.08808      1.99926     4.06623    0.02259     6.08808
      C   45    0.00392      1.99889     3.97119    0.02601     5.99608
      C   46   -0.00335      1.99906     3.98602    0.01827     6.00335
      C   47   -0.21120      1.99906     4.19498    0.01715     6.21120
      C   48   -0.20925      1.99919     4.19230    0.01776     6.20925
      C   49   -0.23003      1.99912     4.21145    0.01946     6.23003
      C   50   -0.30602      1.99889     4.27694    0.03019     6.30602
      P   51    0.84205      9.99780     4.13024    0.02991    14.15795
      C   52   -0.34912      1.99903     4.31896    0.03113     6.34912
      C   53   -0.17344      1.99911     4.15395    0.02039     6.17344
      C   54   -0.21010      1.99910     4.19467    0.01633     6.21010
      C   55   -0.01314      1.99916     3.99665    0.01733     6.01314
      C   56   -0.22369      1.99910     4.20785    0.01674     6.22369
      C   57   -0.21554      1.99911     4.19653    0.01990     6.21554
      H   58    0.22902      0.00000     0.76892    0.00207     0.77098
      H   59    0.21212      0.00000     0.78634    0.00154     0.78788
      C   60   -0.63834      1.99943     4.62724    0.01166     6.63834
      H   61    0.22227      0.00000     0.77666    0.00107     0.77773
      H   62    0.21930      0.00000     0.77972    0.00098     0.78070
      H   63    0.22704      0.00000     0.77181    0.00115     0.77296
      H   64    0.21421      0.00000     0.78432    0.00148     0.78579
      H   65    0.23274      0.00000     0.76541    0.00185     0.76726
      C   66   -0.34060      1.99904     4.31075    0.03081     6.34060
      C   67   -0.19647      1.99909     4.17838    0.01899     6.19647
      C   68   -0.21042      1.99912     4.19446    0.01684     6.21042
      C   69   -0.01578      1.99916     3.99793    0.01869     6.01578
      C   70   -0.21489      1.99911     4.19868    0.01711     6.21489
      C   71   -0.19728      1.99912     4.17906    0.01911     6.19728
      H   72    0.22636      0.00000     0.77221    0.00143     0.77364
      H   73    0.21526      0.00000     0.78331    0.00143     0.78474
      C   74   -0.63820      1.99944     4.62691    0.01186     6.63820
      H   75    0.22650      0.00000     0.77231    0.00119     0.77350
      H   76    0.22025      0.00000     0.77870    0.00105     0.77975
      H   77    0.22231      0.00000     0.77661    0.00108     0.77769
      H   78    0.21316      0.00000     0.78536    0.00148     0.78684
      H   79    0.22645      0.00000     0.77167    0.00188     0.77355
      H   80    0.22856      0.00000     0.76887    0.00257     0.77144
      H   81    0.21539      0.00000     0.78338    0.00123     0.78461
      H   82    0.21199      0.00000     0.78620    0.00182     0.78801
      C   83   -0.44372      1.99938     4.43071    0.01363     6.44372
      H   84    0.22729      0.00000     0.77093    0.00178     0.77271
      C   85   -0.38557      1.99939     4.37299    0.01319     6.38557
      H   86    0.21370      0.00000     0.78508    0.00123     0.78630
      H   87    0.22172      0.00000     0.77660    0.00168     0.77828
      H   88    0.21641      0.00000     0.78217    0.00142     0.78359
      H   89    0.21628      0.00000     0.78231    0.00141     0.78372
 =======================================================================
   * Total *    0.00000    109.95699   231.05195    0.99106   342.00000

 Normal termination of Gaussian 16 at Tue Nov  2 10:45:11 2021.
