 Gaussian 16, Revision B.01,

 ----------------------------------------------------------------------
 # PBE1PBE/def2TZVP int=(grid=ultrafine) empiricaldispersion=GD3BJ nmr=
 giao
 ----------------------------------------------------------------------

 -----
 title
 -----
 Symbolic Z-matrix:
 Charge =  0 Multiplicity = 1

 SCF Done:  E(RPBE1PBE) =  -2415.61899095     A.U. after   15 cycles

      1  P    Isotropic =   291.7083   Anisotropy =    50.6016

      2  P    Isotropic =   292.7923   Anisotropy =    49.3093

      3  O    Isotropic =   192.7483   Anisotropy =    98.9965

      4  O    Isotropic =   193.0826   Anisotropy =   111.4466

      5  C    Isotropic =    39.9519   Anisotropy =   205.6370

      6  C    Isotropic =    43.3578   Anisotropy =   183.7582

      7  C    Isotropic =    52.7736   Anisotropy =   182.9570

      8  C    Isotropic =    51.9464   Anisotropy =   186.4476

      9  C    Isotropic =    50.6093   Anisotropy =   185.6859

     10  C    Isotropic =    43.2805   Anisotropy =   196.5210

     11  C    Isotropic =    42.5069   Anisotropy =   204.2685

     12  C    Isotropic =    41.4281   Anisotropy =   201.9001

     13  C    Isotropic =    51.5165   Anisotropy =   187.9507

     14  C    Isotropic =    51.6216   Anisotropy =   188.6775

     15  C    Isotropic =    52.5766   Anisotropy =   185.5798

     16  C    Isotropic =    44.0515   Anisotropy =   185.9354

     17  C    Isotropic =    36.4835   Anisotropy =   191.2367

     18  C    Isotropic =    54.0541   Anisotropy =   183.0041

     19  C    Isotropic =    52.7509   Anisotropy =   181.5997

     20  C    Isotropic =    67.2934   Anisotropy =   168.6060

     21  C    Isotropic =    22.4981   Anisotropy =   140.5842

     22  C    Isotropic =    46.2411   Anisotropy =   162.6973

     23  C    Isotropic =    46.3717   Anisotropy =   163.5799

     24  C    Isotropic =    18.4950   Anisotropy =   142.9353

     25  C    Isotropic =    64.8233   Anisotropy =   156.5827

     26  C    Isotropic =    52.0881   Anisotropy =   182.3936

     27  C    Isotropic =    53.5604   Anisotropy =   184.1513

     28  C    Isotropic =    37.4970   Anisotropy =   190.1087

     29  C    Isotropic =    40.1033   Anisotropy =   205.7090

     30  C    Isotropic =    43.3568   Anisotropy =   183.6963

     31  C    Isotropic =    52.7413   Anisotropy =   182.9941

     32  C    Isotropic =    51.9474   Anisotropy =   186.3044

     33  C    Isotropic =    50.6723   Anisotropy =   185.8486

     34  C    Isotropic =    43.4835   Anisotropy =   196.4751

     35  C    Isotropic =    42.2754   Anisotropy =   204.4708

     36  C    Isotropic =    43.8961   Anisotropy =   186.0048

     37  C    Isotropic =    52.5648   Anisotropy =   185.7772

     38  C    Isotropic =    51.6697   Anisotropy =   188.9873

     39  C    Isotropic =    52.0371   Anisotropy =   187.0208

     40  C    Isotropic =    41.1810   Anisotropy =   201.2982

     41  C    Isotropic =   103.8299   Anisotropy =    86.8307

     42  H    Isotropic =    23.1844   Anisotropy =    10.1000

     43  H    Isotropic =    23.8697   Anisotropy =     3.7821

     44  H    Isotropic =    23.9889   Anisotropy =    14.6348

     45  H    Isotropic =    23.6235   Anisotropy =     9.6899

     46  H    Isotropic =    24.0951   Anisotropy =     4.0796

     47  H    Isotropic =    23.6182   Anisotropy =     8.3152

     48  H    Isotropic =    25.2709   Anisotropy =    12.5595

     49  H    Isotropic =    24.6300   Anisotropy =     4.7627

     50  H    Isotropic =    24.8748   Anisotropy =     6.7372

     51  H    Isotropic =    24.9921   Anisotropy =     6.4000

     52  H    Isotropic =    24.6016   Anisotropy =     4.9195

     53  H    Isotropic =    25.2701   Anisotropy =    12.6195

     54  H    Isotropic =    23.2010   Anisotropy =    10.1291

     55  H    Isotropic =    23.8795   Anisotropy =     3.7676

     56  H    Isotropic =    23.9847   Anisotropy =    14.6528

     57  H    Isotropic =    23.6088   Anisotropy =     8.2574

     58  H    Isotropic =    24.0974   Anisotropy =     3.9761

     59  H    Isotropic =    23.6225   Anisotropy =     9.7762

     60  C    Isotropic =   160.6603   Anisotropy =    38.1312

     61  H    Isotropic =    27.0348   Anisotropy =     3.4874

     62  C    Isotropic =   143.3757   Anisotropy =    33.6947

     63  C    Isotropic =   108.6699   Anisotropy =    63.2539

     64  H    Isotropic =    26.6771   Anisotropy =     5.8628

     65  C    Isotropic =   165.1193   Anisotropy =    32.2894

     66  H    Isotropic =    29.1069   Anisotropy =     3.6463

     67  H    Isotropic =    30.2794   Anisotropy =     9.1471

     68  H    Isotropic =    30.4372   Anisotropy =    11.5507

     69  H    Isotropic =    29.7374   Anisotropy =     8.1306

     70  H    Isotropic =    29.9727   Anisotropy =     6.1111

     71  H    Isotropic =    30.6212   Anisotropy =    11.9877

     72  H    Isotropic =    29.9403   Anisotropy =     8.5056

     73  H    Isotropic =    30.0089   Anisotropy =     3.3639

     74  H    Isotropic =    23.9660   Anisotropy =     7.1932

     75  H    Isotropic =    24.0146   Anisotropy =     6.8730

     76  H    Isotropic =    24.1115   Anisotropy =     4.8922

     77  H    Isotropic =    23.7039   Anisotropy =     5.7728

     78  H    Isotropic =    24.1109   Anisotropy =     4.9179

     79  H    Isotropic =    24.0102   Anisotropy =     7.0741

     80  H    Isotropic =    23.9711   Anisotropy =     7.1865

     81  H    Isotropic =    23.7091   Anisotropy =     5.7714

 Normal termination of Gaussian 16 at Tue Nov  2 10:22:40 2021.
 Gaussian 16:  ES64L-G16RevB.01 20-Dec-2017

 ----------------------------------------------------------------------
 # PBE1PBE/def2TZVP int=(grid=ultrafine) empiricaldispersion=GD3BJ pop=
 nbo guess=read geom=check
 ----------------------------------------------------------------------

 -----
 title
 -----
 Structure from the checkpoint file:  "RSS-C3-Tunephos_1_SPE_NoPd.chk"
 Charge =  0 Multiplicity = 1

                         Standard orientation:
 ---------------------------------------------------------------------
 Center     Atomic      Atomic             Coordinates (Angstroms)
 Number     Number       Type             X           Y           Z
 ---------------------------------------------------------------------
      1         15           0        1.678268   -1.604198    0.129532
      2         15           0       -1.678553   -1.606401    0.048842
      3          8           0       -0.855437    2.732549   -1.317693
      4          8           0        0.857936    2.882966    0.948540
      5          6           0        3.242371   -2.281906   -0.554310
      6          6           0        3.181835   -3.314808   -1.510316
      7          6           0        4.357054   -3.774284   -2.115795
      8          6           0        5.596611   -3.220993   -1.760302
      9          6           0        5.658988   -2.202900   -0.799276
     10          6           0        4.484857   -1.728400   -0.198037
     11          6           0        2.130724   -0.833867    1.725080
     12          6           0        2.655442    0.470184    1.803235
     13          6           0        2.994900    1.010063    3.050219
     14          6           0        2.823053    0.249620    4.215927
     15          6           0        2.310721   -1.054325    4.135911
     16          6           0        1.959874   -1.600186    2.894732
     17          6           0        1.311613   -0.211669   -1.036031
     18          6           0        1.957137   -0.188495   -2.289186
     19          6           0        1.673487    0.820246   -3.215692
     20          6           0        0.753904    1.828070   -2.909873
     21          6           0        0.110987    1.813760   -1.665191
     22          6           0        0.363461    0.790254   -0.718759
     23          6           0       -0.358151    0.874613    0.583214
     24          6           0       -0.111889    2.013224    1.386974
     25          6           0       -0.776466    2.204628    2.605778
     26          6           0       -1.708375    1.254405    3.033098
     27          6           0       -1.978196    0.125954    2.250723
     28          6           0       -1.315294   -0.072459    1.022402
     29          6           0       -3.243834   -2.190947    0.811446
     30          6           0       -3.182355   -3.084799    1.898630
     31          6           0       -4.357527   -3.463261    2.557718
     32          6           0       -5.598212   -2.968780    2.127264
     33          6           0       -5.661574   -2.090828    1.036833
     34          6           0       -4.487431   -1.696783    0.379964
     35          6           0       -2.127047   -1.046428   -1.633228
     36          6           0       -1.939356   -1.949058   -2.698153
     37          6           0       -2.289128   -1.565801   -3.999076
     38          6           0       -2.819034   -0.289421   -4.242016
     39          6           0       -3.008065    0.606812   -3.180019
     40          6           0       -2.667717    0.230951   -1.874500
     41          6           0        0.511754    4.287231    0.808700
     42          1           0        2.216730   -3.768896   -1.755044
     43          1           0        6.515677   -3.591828   -2.225750
     44          1           0        4.537693   -0.937278    0.556103
     45          1           0        2.759456    1.077382    0.899053
     46          1           0        3.085383    0.675335    5.190201
     47          1           0        1.566412   -2.620162    2.813808
     48          1           0        2.687984   -0.960241   -2.539144
     49          1           0        2.174059    0.818043   -4.189157
     50          1           0        0.518972    2.606579   -3.641233
     51          1           0       -0.539164    3.079143    3.219566
     52          1           0       -2.225337    1.387507    3.988695
     53          1           0       -2.714343   -0.603656    2.594353
     54          1           0       -2.216263   -3.497450    2.205146
     55          1           0       -6.517252   -3.277153    2.636293
     56          1           0       -4.541375   -1.015695   -0.474753
     57          1           0       -1.534189   -2.945978   -2.489443
     58          1           0       -3.082158    0.008453   -5.262438
     59          1           0       -2.784751    0.943449   -1.052382
     60          6           0        1.501790    5.098224    1.641844
     61          1           0       -0.514624    4.434341    1.192887
     62          6           0        0.587354    4.634044   -0.687973
     63          6           0       -0.590148    4.136183   -1.547972
     64          1           0       -0.329579    4.294667   -2.613323
     65          6           0       -1.912729    4.840731   -1.260291
     66          1           0        1.531250    4.207783   -1.074043
     67          1           0        0.656859    5.730711   -0.812598
     68          1           0        1.280958    6.177090    1.576484
     69          1           0        1.456966    4.793182    2.700358
     70          1           0        2.531112    4.930843    1.280390
     71          1           0       -1.821022    5.923563   -1.445588
     72          1           0       -2.704049    4.437912   -1.913031
     73          1           0       -2.225674    4.685464   -0.214366
     74          1           0        6.625373   -1.777406   -0.509334
     75          1           0        3.380394    2.033458    3.107879
     76          1           0        2.177690   -1.649669    5.044973
     77          1           0        4.304502   -4.582068   -2.852590
     78          1           0       -2.142663   -2.267109   -4.826856
     79          1           0       -3.410270    1.608377   -3.366083
     80          1           0       -6.628754   -1.713098    0.689130
     81          1           0       -4.304031   -4.163532    3.397297
 ---------------------------------------------------------------------

 SCF Done:  E(RPBE1PBE) =  -2415.61899095     A.U. after    1 cycles

 The electronic state is 1-A.
 Alpha  occ. eigenvalues --  -77.19065 -77.19060 -19.22630 -19.22170 -10.29145
 Alpha  occ. eigenvalues --  -10.29005 -10.28104 -10.27950 -10.23757 -10.23736
 Alpha  occ. eigenvalues --  -10.23539 -10.23479 -10.23388 -10.23386 -10.23201
 Alpha  occ. eigenvalues --  -10.23170 -10.23134 -10.23056 -10.23054 -10.23021
 Alpha  occ. eigenvalues --  -10.23017 -10.22946 -10.22943 -10.22827 -10.22824
 Alpha  occ. eigenvalues --  -10.22793 -10.22769 -10.22733 -10.22724 -10.22673
 Alpha  occ. eigenvalues --  -10.22671 -10.22620 -10.22571 -10.22550 -10.22530
 Alpha  occ. eigenvalues --  -10.22509 -10.22447 -10.22409 -10.22351 -10.22342
 Alpha  occ. eigenvalues --  -10.22334 -10.22269 -10.22199 -10.21743 -10.21731
 Alpha  occ. eigenvalues --   -6.58688  -6.58682  -4.72277  -4.72271  -4.72271
 Alpha  occ. eigenvalues --   -4.72266  -4.71826  -4.71820  -1.08631  -1.07314
 Alpha  occ. eigenvalues --   -0.88794  -0.87736  -0.87537  -0.87076  -0.87014
 Alpha  occ. eigenvalues --   -0.86235  -0.83323  -0.79698  -0.79463  -0.78205
 Alpha  occ. eigenvalues --   -0.78015  -0.76515  -0.76513  -0.76180  -0.76118
 Alpha  occ. eigenvalues --   -0.75796  -0.75741  -0.75065  -0.74916  -0.72853
 Alpha  occ. eigenvalues --   -0.71620  -0.66843  -0.65922  -0.64899  -0.63853
 Alpha  occ. eigenvalues --   -0.63132  -0.62041  -0.62005  -0.61597  -0.61500
 Alpha  occ. eigenvalues --   -0.60967  -0.60837  -0.59762  -0.59443  -0.58549
 Alpha  occ. eigenvalues --   -0.56363  -0.55939  -0.54229  -0.53310  -0.52614
 Alpha  occ. eigenvalues --   -0.52562  -0.50960  -0.50747  -0.50370  -0.49564
 Alpha  occ. eigenvalues --   -0.48490  -0.48189  -0.47583  -0.46451  -0.46393
 Alpha  occ. eigenvalues --   -0.46044  -0.45980  -0.45963  -0.45910  -0.45611
 Alpha  occ. eigenvalues --   -0.45352  -0.45180  -0.44490  -0.43999  -0.43523
 Alpha  occ. eigenvalues --   -0.43075  -0.43052  -0.42719  -0.42593  -0.41992
 Alpha  occ. eigenvalues --   -0.41692  -0.41372  -0.41252  -0.41172  -0.40907
 Alpha  occ. eigenvalues --   -0.40066  -0.39309  -0.39036  -0.38586  -0.38328
 Alpha  occ. eigenvalues --   -0.37915  -0.37679  -0.37584  -0.37157  -0.36931
 Alpha  occ. eigenvalues --   -0.36572  -0.36299  -0.36062  -0.35327  -0.35287
 Alpha  occ. eigenvalues --   -0.35208  -0.35004  -0.34696  -0.34177  -0.33781
 Alpha  occ. eigenvalues --   -0.33167  -0.32632  -0.32474  -0.30733  -0.29319
 Alpha  occ. eigenvalues --   -0.28747  -0.27915  -0.26723  -0.26624  -0.26466
 Alpha  occ. eigenvalues --   -0.26448  -0.26044  -0.26015  -0.25719  -0.25224
 Alpha  occ. eigenvalues --   -0.24000  -0.22398  -0.21852  -0.18657
 Alpha virt. eigenvalues --   -0.03063  -0.02641  -0.02416  -0.01721  -0.01534
 Alpha virt. eigenvalues --   -0.01104  -0.00775  -0.00581   0.00119   0.00375
 Alpha virt. eigenvalues --    0.00921   0.01725   0.03335   0.04527   0.05167

 Mulliken charges:
               1
     1  P    0.034811
     2  P    0.034569
     3  O   -0.270566
     4  O   -0.286655
     5  C    0.057255
     6  C   -0.207754
     7  C   -0.111592
     8  C   -0.100816
     9  C   -0.149663
    10  C   -0.119882
    11  C    0.145734
    12  C   -0.145874
    13  C   -0.139997
    14  C   -0.110239
    15  C   -0.114864
    16  C   -0.202144
    17  C   -0.031626
    18  C   -0.175554
    19  C   -0.172465
    20  C   -0.238373
    21  C    0.238220
    22  C    0.090165
    23  C    0.047590
    24  C    0.239776
    25  C   -0.225748
    26  C   -0.181792
    27  C   -0.162263
    28  C   -0.046430
    29  C    0.057137
    30  C   -0.207895
    31  C   -0.111187
    32  C   -0.101482
    33  C   -0.149199
    34  C   -0.120411
    35  C    0.151084
    36  C   -0.202147
    37  C   -0.113986
    38  C   -0.111538
    39  C   -0.138236
    40  C   -0.156736
    41  C   -0.024739
    42  H    0.125240
    43  H    0.117539
    44  H    0.139684
    45  H    0.152460
    46  H    0.113043
    47  H    0.122164
    48  H    0.139851
    49  H    0.109093
    50  H    0.105267
    51  H    0.118172
    52  H    0.108623
    53  H    0.139961
    54  H    0.125187
    55  H    0.117504
    56  H    0.139932
    57  H    0.122564
    58  H    0.113201
    59  H    0.157737
    60  C   -0.358130
    61  H    0.094044
    62  C   -0.140367
    63  C    0.082035
    64  H    0.079254
    65  C   -0.408343
    66  H    0.124837
    67  H    0.115904
    68  H    0.122524
    69  H    0.131496
    70  H    0.125694
    71  H    0.122114
    72  H    0.133699
    73  H    0.134730
    74  H    0.115659
    75  H    0.109478
    76  H    0.113429
    77  H    0.117231
    78  H    0.113552
    79  H    0.106557
    80  H    0.115602
    81  H    0.117289
 Sum of Mulliken charges =  -0.00000

 Dipole moment (field-independent basis, Debye):
    X=             -0.0759    Y=              3.9200    Z=             -0.4071  Tot=              3.9418
 Quadrupole moment (field-independent basis, Debye-Ang):
   XX=           -267.3842   YY=           -251.3914   ZZ=           -255.3183
   XY=             -0.6750   XZ=             -4.3024   YZ=             -0.8922

 Summary of Natural Population Analysis:

                                       Natural Population
                Natural  -----------------------------------------------
    Atom  No    Charge         Core      Valence    Rydberg      Total
 -----------------------------------------------------------------------
      P    1    0.84355      9.99780     4.12803    0.03062    14.15645
      P    2    0.84299      9.99780     4.12858    0.03063    14.15701
      O    3   -0.50335      1.99974     6.47868    0.02492     8.50335
      O    4   -0.50825      1.99974     6.48414    0.02437     8.50825
      C    5   -0.32693      1.99906     4.29577    0.03211     6.32693
      C    6   -0.20981      1.99912     4.19117    0.01952     6.20981
      C    7   -0.21668      1.99921     4.19891    0.01856     6.21668
      C    8   -0.21305      1.99922     4.19561    0.01822     6.21305
      C    9   -0.21073      1.99921     4.19362    0.01790     6.21073
      C   10   -0.20315      1.99910     4.18491    0.01915     6.20315
      C   11   -0.33673      1.99905     4.30437    0.03331     6.33673
      C   12   -0.20820      1.99910     4.18781    0.02129     6.20820
      C   13   -0.21326      1.99920     4.19493    0.01913     6.21326
      C   14   -0.21038      1.99922     4.19291    0.01825     6.21038
      C   15   -0.21435      1.99921     4.19691    0.01823     6.21435
      C   16   -0.19741      1.99912     4.17780    0.02049     6.19741
      C   17   -0.28107      1.99894     4.25277    0.02937     6.28107
      C   18   -0.23726      1.99912     4.21864    0.01951     6.23726
      C   19   -0.18772      1.99921     4.17117    0.01734     6.18772
      C   20   -0.28676      1.99904     4.27033    0.01739     6.28676
      C   21    0.32142      1.99867     3.65626    0.02365     5.67858
      C   22   -0.09144      1.99885     4.06509    0.02750     6.09144
      C   23   -0.09163      1.99885     4.06520    0.02759     6.09163
      C   24    0.32537      1.99867     3.65299    0.02297     5.67463
      C   25   -0.28278      1.99904     4.26519    0.01855     6.28278
      C   26   -0.18940      1.99921     4.17316    0.01702     6.18940
      C   27   -0.23586      1.99912     4.21718    0.01957     6.23586
      C   28   -0.28215      1.99894     4.25386    0.02934     6.28215
      C   29   -0.32706      1.99906     4.29593    0.03208     6.32706
      C   30   -0.20962      1.99912     4.19099    0.01951     6.20962
      C   31   -0.21655      1.99921     4.19879    0.01855     6.21655
      C   32   -0.21317      1.99922     4.19573    0.01823     6.21317
      C   33   -0.21074      1.99921     4.19363    0.01790     6.21074
      C   34   -0.20354      1.99910     4.18530    0.01914     6.20354
      C   35   -0.33631      1.99905     4.30387    0.03339     6.33631
      C   36   -0.19685      1.99912     4.17723    0.02051     6.19685
      C   37   -0.21417      1.99921     4.19676    0.01820     6.21417
      C   38   -0.21013      1.99922     4.19271    0.01821     6.21013
      C   39   -0.21402      1.99920     4.19572    0.01910     6.21402
      C   40   -0.20829      1.99910     4.18778    0.02142     6.20829
      C   41    0.08676      1.99927     3.89551    0.01846     5.91324
      H   42    0.22754      0.00000     0.77094    0.00151     0.77246
      H   43    0.21727      0.00000     0.78156    0.00117     0.78273
      H   44    0.22906      0.00000     0.76915    0.00178     0.77094
      H   45    0.23713      0.00000     0.76060    0.00227     0.76287
      H   46    0.21542      0.00000     0.78340    0.00118     0.78458
      H   47    0.22604      0.00000     0.77251    0.00145     0.77396
      H   48    0.23152      0.00000     0.76665    0.00183     0.76848
      H   49    0.21688      0.00000     0.78194    0.00119     0.78312
      H   50    0.21798      0.00000     0.78059    0.00143     0.78202
      H   51    0.21801      0.00000     0.78037    0.00162     0.78199
      H   52    0.21704      0.00000     0.78177    0.00119     0.78296
      H   53    0.23138      0.00000     0.76679    0.00183     0.76862
      H   54    0.22764      0.00000     0.77085    0.00151     0.77236
      H   55    0.21727      0.00000     0.78155    0.00117     0.78273
      H   56    0.22896      0.00000     0.76926    0.00178     0.77104
      H   57    0.22626      0.00000     0.77229    0.00146     0.77374
      H   58    0.21549      0.00000     0.78333    0.00118     0.78451
      H   59    0.23690      0.00000     0.76072    0.00238     0.76310
      C   60   -0.63044      1.99945     4.61902    0.01197     6.63044
      H   61    0.18823      0.00000     0.80906    0.00271     0.81177
      C   62   -0.45685      1.99934     4.44260    0.01490     6.45685
      C   63    0.10210      1.99927     3.88075    0.01788     5.89790
      H   64    0.17572      0.00000     0.82194    0.00233     0.82428
      C   65   -0.63044      1.99945     4.61864    0.01235     6.63044
      H   66    0.23013      0.00000     0.76840    0.00147     0.76987
      H   67    0.22047      0.00000     0.77825    0.00129     0.77953
      H   68    0.21399      0.00000     0.78508    0.00093     0.78601
      H   69    0.21953      0.00000     0.77939    0.00108     0.78047
      H   70    0.21704      0.00000     0.78172    0.00124     0.78296
      H   71    0.21464      0.00000     0.78450    0.00086     0.78536
      H   72    0.22447      0.00000     0.77438    0.00115     0.77553
      H   73    0.21636      0.00000     0.78244    0.00120     0.78364
      H   74    0.21683      0.00000     0.78185    0.00132     0.78317
      H   75    0.21680      0.00000     0.78181    0.00138     0.78320
      H   76    0.21690      0.00000     0.78192    0.00119     0.78310
      H   77    0.21819      0.00000     0.78056    0.00125     0.78181
      H   78    0.21701      0.00000     0.78180    0.00119     0.78299
      H   79    0.21522      0.00000     0.78335    0.00143     0.78478
      H   80    0.21679      0.00000     0.78189    0.00132     0.78321
      H   81    0.21823      0.00000     0.78052    0.00125     0.78177
 =======================================================================
   * Total *    0.00000    105.95912   221.02006    1.02081   328.00000

 Normal termination of Gaussian 16 at Tue Nov  2 10:24:59 2021.
