 Gaussian 16, Revision B.01,

 ----------------------------------------------------------------------
 # PBE1PBE gen pseudo=read int=(grid=ultrafine) empiricaldispersion=GD3
 BJ nmr=giao
 ----------------------------------------------------------------------

 -----
 title
 -----
 Symbolic Z-matrix:
 Charge =  0 Multiplicity = 1

 SCF Done:  E(RPBE1PBE) =  -3463.81110045     A.U. after   20 cycles

      1  Pd   Isotropic =  -165.4151   Anisotropy =   275.7547

      2  P    Isotropic =   239.3814   Anisotropy =   122.1162

      3  P    Isotropic =   239.0776   Anisotropy =   123.2402

      4  O    Isotropic =   189.5485   Anisotropy =   106.3761

      5  O    Isotropic =   191.0362   Anisotropy =   116.3304

      6  C    Isotropic =    44.2541   Anisotropy =   182.7095

      7  C    Isotropic =    36.7135   Anisotropy =   201.1984

      8  C    Isotropic =    52.6775   Anisotropy =   184.5152

      9  C    Isotropic =    49.4340   Anisotropy =   190.1863

     10  C    Isotropic =    53.4175   Anisotropy =   181.9004

     11  C    Isotropic =    47.1438   Anisotropy =   193.3484

     12  C    Isotropic =    50.6487   Anisotropy =   179.2478

     13  C    Isotropic =    43.7120   Anisotropy =   201.9075

     14  C    Isotropic =    53.2875   Anisotropy =   185.9180

     15  C    Isotropic =    48.8405   Anisotropy =   192.8123

     16  C    Isotropic =    51.0075   Anisotropy =   188.9483

     17  C    Isotropic =    38.9725   Anisotropy =   202.3418

     18  C    Isotropic =    41.3644   Anisotropy =   184.6839

     19  C    Isotropic =    49.9329   Anisotropy =   189.7422

     20  C    Isotropic =    52.1921   Anisotropy =   184.6305

     21  C    Isotropic =    63.0996   Anisotropy =   175.7046

     22  C    Isotropic =    21.8429   Anisotropy =   142.5105

     23  C    Isotropic =    46.0763   Anisotropy =   161.4297

     24  C    Isotropic =    46.2644   Anisotropy =   162.0019

     25  C    Isotropic =    18.1584   Anisotropy =   144.6855

     26  C    Isotropic =    60.5269   Anisotropy =   163.8135

     27  C    Isotropic =    51.4267   Anisotropy =   185.1991

     28  C    Isotropic =    49.5355   Anisotropy =   190.8212

     29  C    Isotropic =    42.4139   Anisotropy =   183.1409

     30  C    Isotropic =    44.2809   Anisotropy =   182.9001

     31  C    Isotropic =    36.7430   Anisotropy =   201.0722

     32  C    Isotropic =    52.6419   Anisotropy =   184.5894

     33  C    Isotropic =    49.4408   Anisotropy =   190.1328

     34  C    Isotropic =    53.4743   Anisotropy =   181.9544

     35  C    Isotropic =    47.2868   Anisotropy =   193.2828

     36  C    Isotropic =    50.4769   Anisotropy =   179.4903

     37  C    Isotropic =    38.8779   Anisotropy =   201.9967

     38  C    Isotropic =    50.9999   Anisotropy =   189.1170

     39  C    Isotropic =    48.8846   Anisotropy =   192.9356

     40  C    Isotropic =    53.7024   Anisotropy =   185.1084

     41  C    Isotropic =    43.7283   Anisotropy =   201.3745

     42  C    Isotropic =   103.3217   Anisotropy =    88.0376

     43  H    Isotropic =    22.3169   Anisotropy =    13.1519

     44  H    Isotropic =    23.7906   Anisotropy =     3.5312

     45  H    Isotropic =    24.2727   Anisotropy =    14.4273

     46  H    Isotropic =    23.7620   Anisotropy =     9.8302

     47  H    Isotropic =    23.8854   Anisotropy =     3.8498

     48  H    Isotropic =    21.8877   Anisotropy =    11.5778

     49  H    Isotropic =    24.9752   Anisotropy =    12.8115

     50  H    Isotropic =    24.5257   Anisotropy =     4.7510

     51  H    Isotropic =    24.5543   Anisotropy =     6.6447

     52  H    Isotropic =    24.6671   Anisotropy =     6.3108

     53  H    Isotropic =    24.4917   Anisotropy =     4.8678

     54  H    Isotropic =    24.9771   Anisotropy =    12.9057

     55  H    Isotropic =    22.3407   Anisotropy =    13.1551

     56  H    Isotropic =    23.7958   Anisotropy =     3.5173

     57  H    Isotropic =    24.2687   Anisotropy =    14.4260

     58  H    Isotropic =    21.9108   Anisotropy =    11.5174

     59  H    Isotropic =    23.8875   Anisotropy =     3.7466

     60  H    Isotropic =    23.7676   Anisotropy =     9.9083

     61  C    Isotropic =   160.7189   Anisotropy =    38.0972

     62  H    Isotropic =    27.0684   Anisotropy =     3.9911

     63  Cl   Isotropic =   844.3034   Anisotropy =   523.8704

     64  Cl   Isotropic =   843.4913   Anisotropy =   523.6831

     65  C    Isotropic =   143.3281   Anisotropy =    33.4997

     66  C    Isotropic =   108.2182   Anisotropy =    64.5654

     67  H    Isotropic =    26.6827   Anisotropy =     5.9897

     68  C    Isotropic =   165.2320   Anisotropy =    32.2230

     69  H    Isotropic =    29.1536   Anisotropy =     3.8926

     70  H    Isotropic =    30.2297   Anisotropy =     9.4945

     71  H    Isotropic =    30.3974   Anisotropy =    11.8375

     72  H    Isotropic =    29.7247   Anisotropy =     8.1154

     73  H    Isotropic =    29.9528   Anisotropy =     6.1511

     74  H    Isotropic =    30.5766   Anisotropy =    12.3093

     75  H    Isotropic =    29.9285   Anisotropy =     8.4495

     76  H    Isotropic =    30.0503   Anisotropy =     3.2944

     77  H    Isotropic =    24.0746   Anisotropy =     7.0726

     78  H    Isotropic =    24.0099   Anisotropy =     6.6519

     79  H    Isotropic =    23.8422   Anisotropy =     6.2320

     80  H    Isotropic =    23.6263   Anisotropy =     7.1213

     81  H    Isotropic =    23.8444   Anisotropy =     6.2461

     82  H    Isotropic =    24.0112   Anisotropy =     6.8530

     83  H    Isotropic =    24.0778   Anisotropy =     7.0650

     84  H    Isotropic =    23.6313   Anisotropy =     7.1194

 Normal termination of Gaussian 16 at Tue Nov  2 11:45:36 2021.
 Gaussian 16:  ES64L-G16RevB.01 20-Dec-2017

 ----------------------------------------------------------------------
 # PBE1PBE gen pseudo=read int=(grid=ultrafine) empiricaldispersion=GD3
 BJ pop=nbo guess=read geom=check
 ----------------------------------------------------------------------

 -----
 title
 -----
 Structure from the checkpoint file:  "RSS-C3-Tunephos_1_SPE.chk"
 Charge =  0 Multiplicity = 1

                         Standard orientation:
 ---------------------------------------------------------------------
 Center     Atomic      Atomic             Coordinates (Angstroms)
 Number     Number       Type             X           Y           Z
 ---------------------------------------------------------------------
      1         46           0        2.402502   -0.009540   -0.043359
      2         15           0        0.844453   -1.682621    0.005479
      3         15           0        0.856061    1.675051   -0.020330
      4          8           0       -3.539297    0.906623    1.188710
      5          8           0       -3.601419   -0.877686   -1.026345
      6          6           0        1.487040   -3.225822    0.766373
      7          6           0        2.479321   -3.137424    1.762398
      8          6           0        2.908621   -4.293895    2.423561
      9          6           0        2.365952   -5.542772    2.084706
     10          6           0        1.388670   -5.633208    1.084347
     11          6           0        0.944177   -4.477652    0.426823
     12          6           0        0.139743   -2.183760   -1.605776
     13          6           0       -1.161893   -2.707471   -1.721793
     14          6           0       -1.650488   -3.085138   -2.978898
     15          6           0       -0.841357   -2.952391   -4.116599
     16          6           0        0.460047   -2.441001   -3.998335
     17          6           0        0.954906   -2.052150   -2.747138
     18          6           0       -0.594151   -1.275581    1.099482
     19          6           0       -0.672120   -1.880803    2.370411
     20          6           0       -1.717604   -1.565290    3.244394
     21          6           0       -2.708262   -0.653422    2.867619
     22          6           0       -2.639514   -0.050513    1.604862
     23          6           0       -1.578327   -0.335538    0.710611
     24          6           0       -1.605468    0.344445   -0.615987
     25          6           0       -2.710433    0.075526   -1.458511
     26          6           0       -2.848216    0.701416   -2.704728
     27          6           0       -1.877429    1.616887   -3.121223
     28          6           0       -0.781632    1.908696   -2.301227
     29          6           0       -0.637237    1.284765   -1.045265
     30          6           0        1.477912    3.213795   -0.807051
     31          6           0        2.416167    3.115506   -1.853348
     32          6           0        2.826306    4.268148   -2.532952
     33          6           0        2.318998    5.523135   -2.163157
     34          6           0        1.396502    5.623370   -1.113010
     35          6           0        0.970890    4.471724   -0.436307
     36          6           0        0.228010    2.178279    1.621739
     37          6           0        1.084637    2.022369    2.728950
     38          6           0        0.648695    2.414348    4.000930
     39          6           0       -0.634695    2.954882    4.173270
     40          6           0       -1.485048    3.112209    3.069209
     41          6           0       -1.056267    2.729520    1.792030
     42          6           0       -5.008972   -0.523750   -0.956491
     43          1           0        2.926457   -2.166141    1.995192
     44          1           0        2.713515   -6.447463    2.594195
     45          1           0        0.185059   -4.552523   -0.357733
     46          1           0       -1.806730   -2.781130   -0.840991
     47          1           0       -1.226989   -3.244566   -5.099036
     48          1           0        1.972101   -1.658837   -2.636089
     49          1           0        0.085720   -2.605226    2.675528
     50          1           0       -1.757980   -2.034604    4.232485
     51          1           0       -3.515748   -0.393387    3.557913
     52          1           0       -3.697219    0.446851   -3.346767
     53          1           0       -1.968520    2.103477   -4.097473
     54          1           0       -0.035505    2.631715   -2.637177
     55          1           0        2.837584    2.139122   -2.111514
     56          1           0        2.651865    6.424729   -2.687720
     57          1           0        0.254895    4.554551    0.386994
     58          1           0        2.087857    1.608292    2.575132
     59          1           0       -0.973939    3.251110    5.171462
     60          1           0       -1.733344    2.822073    0.937495
     61          6           0       -5.788210   -1.537809   -1.791045
     62          1           0       -5.135994    0.490232   -1.378865
     63         17           0        4.037168   -1.625664   -0.680452
     64         17           0        4.074454    1.595771    0.519717
     65          6           0       -5.418300   -0.550780    0.525988
     66          6           0       -4.952326    0.652280    1.368300
     67          1           0       -5.156173    0.426170    2.433808
     68          6           0       -5.639200    1.966767    1.009557
     69          1           0       -5.012137   -1.482954    0.959318
     70          1           0       -6.519472   -0.613565    0.606717
     71          1           0       -6.868016   -1.312337   -1.777964
     72          1           0       -5.439040   -1.527479   -2.836744
     73          1           0       -5.639996   -2.555507   -1.390430
     74          1           0       -6.729170    1.883690    1.152157
     75          1           0       -5.260996    2.777476    1.653164
     76          1           0       -5.439179    2.245853   -0.038348
     77          1           0        0.971986   -6.607281    0.807639
     78          1           0       -2.672040   -3.469738   -3.067111
     79          1           0        1.093355   -2.338466   -4.885427
     80          1           0        3.685110   -4.219902    3.191502
     81          1           0        1.314243    2.292587    4.861584
     82          1           0       -2.491973    3.522614    3.200311
     83          1           0        1.008258    6.602067   -0.812287
     84          1           0        3.560835    4.186203   -3.340347
 ---------------------------------------------------------------------

 SCF Done:  E(RPBE1PBE) =  -3463.81110045     A.U. after    2 cycles

 The electronic state is 1-A.
 Alpha  occ. eigenvalues -- -101.60541-101.60534 -77.26159 -77.26157 -19.24712
 Alpha  occ. eigenvalues --  -19.24255 -10.30886 -10.30769 -10.30517 -10.30369
 Alpha  occ. eigenvalues --  -10.26424 -10.26405 -10.26319 -10.26260 -10.25325
 Alpha  occ. eigenvalues --  -10.25287 -10.24904 -10.24899 -10.24879 -10.24839
 Alpha  occ. eigenvalues --  -10.24817 -10.24793 -10.24730 -10.24469 -10.24403
 Alpha  occ. eigenvalues --  -10.24349 -10.24337 -10.24330 -10.24273 -10.24125
 Alpha  occ. eigenvalues --  -10.24039 -10.23974 -10.23943 -10.23943 -10.23919
 Alpha  occ. eigenvalues --  -10.23862 -10.23843 -10.23824 -10.23789 -10.23710
 Alpha  occ. eigenvalues --  -10.23709 -10.23622 -10.23618 -10.23532 -10.23530
 Alpha  occ. eigenvalues --  -10.23305 -10.23305  -9.43053  -9.43045  -7.16240
 Alpha  occ. eigenvalues --   -7.16232  -7.15789  -7.15781  -7.15728  -7.15720
 Alpha  occ. eigenvalues --   -6.65362  -6.65361  -4.78958  -4.78957  -4.78920
 Alpha  occ. eigenvalues --   -4.78918  -4.78714  -4.78712  -3.51562  -2.19270
 Alpha  occ. eigenvalues --   -2.19156  -2.15880  -1.10721  -1.09401  -0.91307
 Alpha  occ. eigenvalues --   -0.89269  -0.88923  -0.88704  -0.88256  -0.88150
 Alpha  occ. eigenvalues --   -0.85218  -0.82259  -0.81473  -0.80220  -0.80095
 Alpha  occ. eigenvalues --   -0.77706  -0.77625  -0.77602  -0.77570  -0.77057
 Alpha  occ. eigenvalues --   -0.77045  -0.76948  -0.76856  -0.75134  -0.73376
 Alpha  occ. eigenvalues --   -0.73235  -0.72676  -0.69685  -0.68579  -0.66867
 Alpha  occ. eigenvalues --   -0.66111  -0.65359  -0.63339  -0.63231  -0.62946
 Alpha  occ. eigenvalues --   -0.62751  -0.62209  -0.62015  -0.61758  -0.61458
 Alpha  occ. eigenvalues --   -0.60578  -0.58477  -0.57916  -0.56332  -0.55285
 Alpha  occ. eigenvalues --   -0.54037  -0.53934  -0.53065  -0.52389  -0.52229
 Alpha  occ. eigenvalues --   -0.51693  -0.50592  -0.50358  -0.49770  -0.48025
 Alpha  occ. eigenvalues --   -0.47810  -0.47656  -0.47641  -0.47457  -0.47012
 Alpha  occ. eigenvalues --   -0.46948  -0.46672  -0.46395  -0.46208  -0.46047
 Alpha  occ. eigenvalues --   -0.45534  -0.44431  -0.44227  -0.44158  -0.43943
 Alpha  occ. eigenvalues --   -0.43630  -0.43603  -0.43205  -0.43108  -0.42934
 Alpha  occ. eigenvalues --   -0.42676  -0.41941  -0.41364  -0.40990  -0.40952
 Alpha  occ. eigenvalues --   -0.40733  -0.39941  -0.39378  -0.39238  -0.38816
 Alpha  occ. eigenvalues --   -0.38717  -0.38315  -0.38027  -0.37939  -0.37464
 Alpha  occ. eigenvalues --   -0.37281  -0.37116  -0.36619  -0.36406  -0.36163
 Alpha  occ. eigenvalues --   -0.36054  -0.35688  -0.35576  -0.35189  -0.34893
 Alpha  occ. eigenvalues --   -0.34784  -0.33459  -0.32393  -0.31522  -0.31300
 Alpha  occ. eigenvalues --   -0.31002  -0.30026  -0.29730  -0.29361  -0.28072
 Alpha  occ. eigenvalues --   -0.27695  -0.27588  -0.27406  -0.27160  -0.26976
 Alpha  occ. eigenvalues --   -0.26681  -0.26284  -0.26157  -0.25777  -0.25586
 Alpha  occ. eigenvalues --   -0.24675  -0.24303  -0.23164  -0.22592  -0.22453
 Alpha virt. eigenvalues --   -0.08082  -0.04438  -0.04149  -0.04014  -0.03501
 Alpha virt. eigenvalues --   -0.02885  -0.02742  -0.01866  -0.01461  -0.01429
 Alpha virt. eigenvalues --   -0.01201  -0.00549  -0.00244   0.01509   0.01598

 Mulliken charges:
               1
     1  Pd   0.080796
     2  P    0.187946
     3  P    0.189695
     4  O   -0.268352
     5  O   -0.284152
     6  C    0.032504
     7  C   -0.140738
     8  C   -0.125143
     9  C   -0.092736
    10  C   -0.154697
    11  C   -0.139002
    12  C    0.058364
    13  C   -0.116962
    14  C   -0.150802
    15  C   -0.097794
    16  C   -0.128139
    17  C   -0.173725
    18  C   -0.010269
    19  C   -0.159937
    20  C   -0.165717
    21  C   -0.225146
    22  C    0.229632
    23  C    0.077660
    24  C    0.027275
    25  C    0.240743
    26  C   -0.215587
    27  C   -0.173608
    28  C   -0.148018
    29  C   -0.025371
    30  C    0.031263
    31  C   -0.139275
    32  C   -0.124739
    33  C   -0.093116
    34  C   -0.154492
    35  C   -0.139296
    36  C    0.063798
    37  C   -0.174873
    38  C   -0.126259
    39  C   -0.099615
    40  C   -0.149568
    41  C   -0.127792
    42  C   -0.032580
    43  H    0.180201
    44  H    0.121069
    45  H    0.141885
    46  H    0.154053
    47  H    0.119100
    48  H    0.177074
    49  H    0.155587
    50  H    0.120540
    51  H    0.114851
    52  H    0.128006
    53  H    0.120115
    54  H    0.155737
    55  H    0.180154
    56  H    0.121045
    57  H    0.142203
    58  H    0.179496
    59  H    0.119281
    60  H    0.159295
    61  C   -0.357419
    62  H    0.096869
    63  Cl  -0.401837
    64  Cl  -0.400728
    65  C   -0.140217
    66  C    0.073536
    67  H    0.083958
    68  C   -0.407640
    69  H    0.125619
    70  H    0.122665
    71  H    0.127434
    72  H    0.132576
    73  H    0.128397
    74  H    0.127114
    75  H    0.136526
    76  H    0.134247
    77  H    0.118870
    78  H    0.114043
    79  H    0.126469
    80  H    0.125522
    81  H    0.126587
    82  H    0.111252
    83  H    0.118799
    84  H    0.125493
 Sum of Mulliken charges =  -0.00000

 Dipole moment (field-independent basis, Debye):
    X=            -14.8261    Y=              0.1425    Z=              0.4755  Tot=             14.8344
 Quadrupole moment (field-independent basis, Debye-Ang):
   XX=           -330.3803   YY=           -300.1526   ZZ=           -286.5754
   XY=             -0.5723   XZ=              0.1848   YZ=             -8.5396

 Summary of Natural Population Analysis:

                                       Natural Population
                Natural  -----------------------------------------------
    Atom  No    Charge         Core      Valence    Rydberg      Total
 -----------------------------------------------------------------------
     Pd    1   -0.19065     35.98845    10.17812    0.02407    46.19065
      P    2    1.19933      9.99558     3.75148    0.05361    13.80067
      P    3    1.19920      9.99557     3.75157    0.05365    13.80080
      O    4   -0.50178      1.99974     6.47715    0.02488     8.50178
      O    5   -0.50658      1.99974     6.48256    0.02429     8.50658
      C    6   -0.34882      1.99901     4.31287    0.03693     6.34882
      C    7   -0.17328      1.99910     4.15499    0.01919     6.17328
      C    8   -0.21211      1.99921     4.19448    0.01842     6.21211
      C    9   -0.19749      1.99922     4.18031    0.01796     6.19749
      C   10   -0.21327      1.99921     4.19637    0.01769     6.21327
      C   11   -0.20042      1.99910     4.18161    0.01972     6.20042
      C   12   -0.37347      1.99901     4.33813    0.03632     6.37347
      C   13   -0.20357      1.99910     4.18283    0.02164     6.20357
      C   14   -0.21669      1.99920     4.19860    0.01888     6.21669
      C   15   -0.19671      1.99922     4.17952    0.01798     6.19671
      C   16   -0.20867      1.99921     4.19165    0.01781     6.20867
      C   17   -0.17939      1.99912     4.16099    0.01929     6.17939
      C   18   -0.31709      1.99893     4.28499    0.03316     6.31709
      C   19   -0.21895      1.99912     4.20041    0.01942     6.21895
      C   20   -0.18401      1.99921     4.16739    0.01741     6.18401
      C   21   -0.26579      1.99905     4.24892    0.01783     6.26579
      C   22    0.32130      1.99867     3.65596    0.02406     5.67870
      C   23   -0.07702      1.99886     4.05051    0.02766     6.07702
      C   24   -0.07710      1.99885     4.05088    0.02737     6.07710
      C   25    0.32595      1.99867     3.65235    0.02303     5.67405
      C   26   -0.26342      1.99904     4.24620    0.01818     6.26342
      C   27   -0.18563      1.99921     4.16949    0.01693     6.18563
      C   28   -0.21710      1.99912     4.19871    0.01927     6.21710
      C   29   -0.31832      1.99893     4.28629    0.03309     6.31832
      C   30   -0.34852      1.99901     4.31258    0.03693     6.34852
      C   31   -0.17317      1.99910     4.15489    0.01919     6.17317
      C   32   -0.21196      1.99921     4.19434    0.01842     6.21196
      C   33   -0.19757      1.99922     4.18039    0.01796     6.19757
      C   34   -0.21320      1.99921     4.19631    0.01769     6.21320
      C   35   -0.20066      1.99909     4.18186    0.01971     6.20066
      C   36   -0.37310      1.99901     4.33764    0.03645     6.37310
      C   37   -0.17860      1.99911     4.16017    0.01931     6.17860
      C   38   -0.20855      1.99921     4.19153    0.01781     6.20855
      C   39   -0.19670      1.99922     4.17949    0.01799     6.19670
      C   40   -0.21735      1.99920     4.19924    0.01890     6.21735
      C   41   -0.20381      1.99910     4.18294    0.02177     6.20381
      C   42    0.08693      1.99926     3.89552    0.01828     5.91307
      H   43    0.24680      0.00000     0.75188    0.00132     0.75320
      H   44    0.21968      0.00000     0.77916    0.00116     0.78032
      H   45    0.22877      0.00000     0.76952    0.00171     0.77123
      H   46    0.23683      0.00000     0.76099    0.00218     0.76317
      H   47    0.21862      0.00000     0.78022    0.00116     0.78138
      H   48    0.25993      0.00000     0.73868    0.00139     0.74007
      H   49    0.24155      0.00000     0.75665    0.00180     0.75845
      H   50    0.22379      0.00000     0.77506    0.00115     0.77621
      H   51    0.22385      0.00000     0.77473    0.00141     0.77615
      H   52    0.22319      0.00000     0.77521    0.00160     0.77681
      H   53    0.22396      0.00000     0.77489    0.00115     0.77604
      H   54    0.24141      0.00000     0.75679    0.00180     0.75859
      H   55    0.24655      0.00000     0.75213    0.00132     0.75345
      H   56    0.21970      0.00000     0.77914    0.00116     0.78030
      H   57    0.22869      0.00000     0.76960    0.00171     0.77131
      H   58    0.25962      0.00000     0.73899    0.00139     0.74038
      H   59    0.21872      0.00000     0.78012    0.00116     0.78128
      H   60    0.23665      0.00000     0.76107    0.00228     0.76335
      C   61   -0.63113      1.99945     4.61971    0.01196     6.63113
      H   62    0.18843      0.00000     0.80894    0.00263     0.81157
     Cl   63   -0.42747      9.99965     7.41896    0.00887    17.42747
     Cl   64   -0.42723      9.99965     7.41872    0.00886    17.42723
      C   65   -0.45749      1.99934     4.44324    0.01490     6.45749
      C   66    0.10128      1.99927     3.88166    0.01779     5.89872
      H   67    0.17717      0.00000     0.82036    0.00246     0.82283
      C   68   -0.63091      1.99944     4.61911    0.01235     6.63091
      H   69    0.22952      0.00000     0.76897    0.00151     0.77048
      H   70    0.22449      0.00000     0.77425    0.00126     0.77551
      H   71    0.21719      0.00000     0.78191    0.00090     0.78281
      H   72    0.22014      0.00000     0.77880    0.00106     0.77986
      H   73    0.21858      0.00000     0.78021    0.00121     0.78142
      H   74    0.21791      0.00000     0.78124    0.00085     0.78209
      H   75    0.22597      0.00000     0.77290    0.00113     0.77403
      H   76    0.21616      0.00000     0.78265    0.00119     0.78384
      H   77    0.22006      0.00000     0.77868    0.00126     0.77994
      H   78    0.22018      0.00000     0.77850    0.00132     0.77982
      H   79    0.22421      0.00000     0.77463    0.00116     0.77579
      H   80    0.22472      0.00000     0.77404    0.00124     0.77528
      H   81    0.22430      0.00000     0.77454    0.00116     0.77570
      H   82    0.21866      0.00000     0.77997    0.00137     0.78134
      H   83    0.22003      0.00000     0.77871    0.00126     0.77997
      H   84    0.22474      0.00000     0.77402    0.00124     0.77526
 =======================================================================
   * Total *   -0.00000    161.94223   244.93183    1.12595   408.00000

 Normal termination of Gaussian 16 at Tue Nov  2 11:51:54 2021.
