 Gaussian 16, Revision B.01,

 ----------------------------------------------------------------------
 # PBE1PBE gen pseudo=read int=(grid=ultrafine) empiricaldispersion=GD3
 BJ nmr=giao
 ----------------------------------------------------------------------

 --------------------
 SS_Et_DuPhos_1 title
 --------------------
 Symbolic Z-matrix:
 Charge =  0 Multiplicity = 1

 SCF Done:  E(RPBE1PBE) =  -2590.03849753     A.U. after   18 cycles

      1  Cl   Isotropic =   975.3776   Anisotropy =   452.4951

      2  P    Isotropic =   193.6443   Anisotropy =   170.3887

      3  P    Isotropic =   188.3290   Anisotropy =   151.2481

      4  C    Isotropic =    27.9986   Anisotropy =   182.0277

      5  C    Isotropic =    33.6518   Anisotropy =   177.8072

      6  C    Isotropic =   133.2342   Anisotropy =    26.2350

      7  H    Isotropic =    27.3003   Anisotropy =     6.4935

      8  C    Isotropic =   127.9568   Anisotropy =    29.8690

      9  H    Isotropic =    28.9287   Anisotropy =     4.7718

     10  C    Isotropic =   125.1994   Anisotropy =    20.8481

     11  H    Isotropic =    28.9774   Anisotropy =     5.6429

     12  C    Isotropic =   133.7813   Anisotropy =    22.6110

     13  H    Isotropic =    27.6316   Anisotropy =     3.7275

     14  C    Isotropic =   150.8644   Anisotropy =    25.8693

     15  H    Isotropic =    29.5281   Anisotropy =    12.0466

     16  H    Isotropic =    29.0102   Anisotropy =     7.4684

     17  C    Isotropic =   148.5027   Anisotropy =    27.9893

     18  H    Isotropic =    29.0020   Anisotropy =    11.3431

     19  H    Isotropic =    29.5408   Anisotropy =     7.9651

     20  C    Isotropic =   148.5979   Anisotropy =    23.9723

     21  H    Isotropic =    29.3883   Anisotropy =    11.8600

     22  H    Isotropic =    28.6796   Anisotropy =     5.4791

     23  C    Isotropic =   145.5418   Anisotropy =    24.6356

     24  H    Isotropic =    29.1185   Anisotropy =    11.3883

     25  H    Isotropic =    29.7880   Anisotropy =     8.6747

     26  C    Isotropic =   160.9504   Anisotropy =    14.0730

     27  H    Isotropic =    29.7324   Anisotropy =    11.6679

     28  H    Isotropic =    29.0327   Anisotropy =     6.0460

     29  C    Isotropic =   154.5950   Anisotropy =    22.6963

     30  H    Isotropic =    29.8485   Anisotropy =    10.9300

     31  H    Isotropic =    28.2372   Anisotropy =     5.7084

     32  C    Isotropic =   157.3282   Anisotropy =    19.6009

     33  H    Isotropic =    29.7119   Anisotropy =    11.4657

     34  H    Isotropic =    28.3631   Anisotropy =     5.8223

     35  C    Isotropic =   157.0713   Anisotropy =    23.6644

     36  H    Isotropic =    30.3401   Anisotropy =     5.1161

     37  H    Isotropic =    29.7584   Anisotropy =    11.3609

     38  C    Isotropic =   173.3480   Anisotropy =     7.1206

     39  H    Isotropic =    31.1254   Anisotropy =     7.0260

     40  H    Isotropic =    32.3191   Anisotropy =    10.0595

     41  H    Isotropic =    31.0158   Anisotropy =    12.2830

     42  C    Isotropic =   165.3734   Anisotropy =    16.9078

     43  H    Isotropic =    31.0202   Anisotropy =     7.0692

     44  H    Isotropic =    30.1510   Anisotropy =    11.6030

     45  H    Isotropic =    29.0470   Anisotropy =    10.8722

     46  C    Isotropic =   167.1171   Anisotropy =    21.7542

     47  H    Isotropic =    29.3674   Anisotropy =    10.7859

     48  H    Isotropic =    31.0222   Anisotropy =     6.7394

     49  H    Isotropic =    30.2232   Anisotropy =    11.5245

     50  C    Isotropic =   168.2395   Anisotropy =    19.2675

     51  H    Isotropic =    30.9362   Anisotropy =    11.7933

     52  H    Isotropic =    30.5885   Anisotropy =     6.2122

     53  H    Isotropic =    31.5632   Anisotropy =     8.4416

     54  C    Isotropic =    44.5865   Anisotropy =   185.2968

     55  H    Isotropic =    23.3446   Anisotropy =    11.6650

     56  C    Isotropic =    49.1497   Anisotropy =   190.6147

     57  H    Isotropic =    23.6478   Anisotropy =     5.5486

     58  C    Isotropic =    49.7016   Anisotropy =   189.7434

     59  H    Isotropic =    23.6214   Anisotropy =     5.3908

     60  C    Isotropic =    45.8763   Anisotropy =   184.5927

     61  H    Isotropic =    23.5607   Anisotropy =    11.2487

     62  Cl   Isotropic =   996.2631   Anisotropy =   540.6149

     63  Pd   Isotropic =  -122.7389   Anisotropy =   216.0083

 Normal termination of Gaussian 16 at Tue Dec 14 14:22:51 2021.
 Gaussian 16:  ES64L-G16RevB.01 20-Dec-2017

 ----------------------------------------------------------------------
 # PBE1PBE gen pseudo=read int=(grid=ultrafine) empiricaldispersion=GD3
 BJ pop=nbo guess=read geom=check
 ----------------------------------------------------------------------

 --------------------
 SS_Et_DuPhos_1 title
 --------------------
 Structure from the checkpoint file:  "SS_Et_DuPhos_1_SPE.chk"
 Charge =  0 Multiplicity = 1

                         Standard orientation:
 ---------------------------------------------------------------------
 Center     Atomic      Atomic             Coordinates (Angstroms)
 Number     Number       Type             X           Y           Z
 ---------------------------------------------------------------------
      1         17           0        1.573123   -3.083098   -0.452716
      2         15           0        1.552648    0.107783    0.075612
      3         15           0       -1.595544    0.283194   -0.006923
      4          6           0        0.764869    1.776344    0.256405
      5          6           0       -0.642356    1.858674    0.117933
      6          6           0        2.833333    0.135390   -1.293706
      7          1           0        3.013153   -0.957722   -1.371413
      8          6           0        2.838975    0.017376    1.462557
      9          1           0        2.649779    0.915211    2.082162
     10          6           0       -2.828496    0.478860   -1.421648
     11          1           0       -2.822407    1.564168   -1.653046
     12          6           0       -2.901029    0.280859    1.358252
     13          1           0       -2.946062   -0.792912    1.623555
     14          6           0        4.071662    0.768578   -0.636888
     15          1           0        4.966327    0.582258   -1.258914
     16          1           0        3.962372    1.866415   -0.565850
     17          6           0        4.217920    0.127101    0.752333
     18          1           0        4.934217    0.673405    1.390538
     19          1           0        4.611435   -0.897792    0.625108
     20          6           0       -4.177448    0.097910   -0.778182
     21          1           0       -5.014077    0.467544   -1.397535
     22          1           0       -4.244798   -1.004074   -0.735601
     23          6           0       -4.211176    0.673867    0.641493
     24          1           0       -5.080586    0.306502    1.215436
     25          1           0       -4.293746    1.778813    0.604046
     26          6           0        2.458832    0.632680   -2.697863
     27          1           0        3.354683    0.470819   -3.328339
     28          1           0        1.683934   -0.035096   -3.110661
     29          6           0        2.756590   -1.238922    2.347683
     30          1           0        3.648064   -1.223310    3.005351
     31          1           0        2.845586   -2.128444    1.698927
     32          6           0       -2.504772   -0.315142   -2.692636
     33          1           0       -3.347591   -0.169069   -3.395752
     34          1           0       -2.478762   -1.388964   -2.434169
     35          6           0       -2.609814    1.116350    2.610896
     36          1           0       -2.537235    2.185618    2.335966
     37          1           0       -3.498693    1.031700    3.265802
     38          6           0        2.007737    2.091726   -2.833982
     39          1           0        2.729354    2.793904   -2.381128
     40          1           0        1.029918    2.265663   -2.357002
     41          1           0        1.910479    2.358285   -3.900104
     42          6           0        1.488361   -1.355212    3.190512
     43          1           0        1.343420   -0.475217    3.842922
     44          1           0        1.528972   -2.252627    3.830189
     45          1           0        0.600671   -1.456801    2.538999
     46          6           0       -1.188650    0.091091   -3.354511
     47          1           0       -0.345617   -0.163509   -2.687691
     48          1           0       -1.147268    1.174919   -3.568357
     49          1           0       -1.033938   -0.451866   -4.301894
     50          6           0       -1.359998    0.693647    3.383674
     51          1           0       -1.264279    1.264294    4.323126
     52          1           0       -1.388113   -0.379796    3.635659
     53          1           0       -0.447036    0.871099    2.791003
     54          6           0        1.501419    2.952274    0.499071
     55          1           0        2.584670    2.901974    0.641209
     56          6           0        0.860921    4.196530    0.551706
     57          1           0        1.447375    5.102529    0.734096
     58          6           0       -0.525937    4.281887    0.363775
     59          1           0       -1.027058    5.254471    0.394566
     60          6           0       -1.274581    3.116213    0.157241
     61          1           0       -2.361079    3.185468    0.036501
     62         17           0       -2.008634   -2.873579   -0.147852
     63         46           0       -0.108198   -1.406685   -0.106371
 ---------------------------------------------------------------------

 SCF Done:  E(RPBE1PBE) =  -2590.03849753     A.U. after    1 cycles

 The electronic state is 1-A.
 Alpha  occ. eigenvalues -- -101.61466-101.61246 -77.26061 -77.26009 -10.27950
 Alpha  occ. eigenvalues --  -10.27859 -10.27194 -10.27058 -10.26926 -10.26856
 Alpha  occ. eigenvalues --  -10.25893 -10.25715 -10.25520 -10.25434 -10.24425
 Alpha  occ. eigenvalues --  -10.24230 -10.24224 -10.24012 -10.23715 -10.23471
 Alpha  occ. eigenvalues --  -10.22510 -10.22336 -10.22277 -10.22137 -10.21499
 Alpha  occ. eigenvalues --  -10.20805  -9.43972  -9.43756  -7.17126  -7.16908
 Alpha  occ. eigenvalues --   -7.16713  -7.16678  -7.16498  -7.16464  -6.65324
 Alpha  occ. eigenvalues --   -6.65289  -4.78937  -4.78902  -4.78831  -4.78794
 Alpha  occ. eigenvalues --   -4.78675  -4.78639  -3.52144  -2.19853  -2.19731
 Alpha  occ. eigenvalues --   -2.16519  -0.91845  -0.87609  -0.87486  -0.82410
 Alpha  occ. eigenvalues --   -0.82077  -0.81292  -0.80699  -0.78713  -0.78364
 Alpha  occ. eigenvalues --   -0.74266  -0.73660  -0.73011  -0.72719  -0.71959
 Alpha  occ. eigenvalues --   -0.71065  -0.67056  -0.66660  -0.64633  -0.63334
 Alpha  occ. eigenvalues --   -0.62356  -0.62257  -0.60003  -0.59381  -0.58051
 Alpha  occ. eigenvalues --   -0.55700  -0.53421  -0.51242  -0.50880  -0.50234
 Alpha  occ. eigenvalues --   -0.50198  -0.48899  -0.48247  -0.47512  -0.46773
 Alpha  occ. eigenvalues --   -0.46559  -0.46063  -0.45047  -0.44959  -0.44053
 Alpha  occ. eigenvalues --   -0.43177  -0.43107  -0.42777  -0.42595  -0.42465
 Alpha  occ. eigenvalues --   -0.42025  -0.41130  -0.40676  -0.39100  -0.38869
 Alpha  occ. eigenvalues --   -0.38382  -0.38063  -0.37549  -0.37285  -0.36890
 Alpha  occ. eigenvalues --   -0.36595  -0.35839  -0.35699  -0.35397  -0.35158
 Alpha  occ. eigenvalues --   -0.35029  -0.34755  -0.34637  -0.34534  -0.34177
 Alpha  occ. eigenvalues --   -0.34043  -0.33808  -0.33589  -0.33257  -0.30984
 Alpha  occ. eigenvalues --   -0.30604  -0.29639  -0.29177  -0.28761  -0.28523
 Alpha  occ. eigenvalues --   -0.26080  -0.25211  -0.24365  -0.23914  -0.23673
 Alpha virt. eigenvalues --   -0.06567  -0.06270  -0.06048  -0.00033   0.00393
 Alpha virt. eigenvalues --    0.02066   0.02487   0.02714   0.03415   0.03624
 Alpha virt. eigenvalues --    0.04665   0.05080   0.05276   0.05749   0.05960

 Mulliken charges:
               1
     1  Cl  -0.445634
     2  P    0.154476
     3  P    0.139753
     4  C   -0.048419
     5  C    0.026483
     6  C   -0.027386
     7  H    0.140719
     8  C   -0.088598
     9  H    0.109554
    10  C   -0.141388
    11  H    0.098841
    12  C   -0.122205
    13  H    0.141095
    14  C   -0.229720
    15  H    0.119861
    16  H    0.101482
    17  C   -0.194707
    18  H    0.118598
    19  H    0.131796
    20  C   -0.154630
    21  H    0.113675
    22  H    0.146507
    23  C   -0.187493
    24  H    0.122757
    25  H    0.095529
    26  C   -0.209833
    27  H    0.109395
    28  H    0.154148
    29  C   -0.179864
    30  H    0.106934
    31  H    0.149409
    32  C   -0.142856
    33  H    0.101794
    34  H    0.154371
    35  C   -0.116962
    36  H    0.095454
    37  H    0.113134
    38  C   -0.393088
    39  H    0.114716
    40  H    0.132500
    41  H    0.135158
    42  C   -0.426432
    43  H    0.117159
    44  H    0.134013
    45  H    0.188298
    46  C   -0.401163
    47  H    0.135935
    48  H    0.113109
    49  H    0.134864
    50  C   -0.409868
    51  H    0.128097
    52  H    0.149281
    53  H    0.124560
    54  C   -0.167868
    55  H    0.145082
    56  C   -0.141411
    57  H    0.130394
    58  C   -0.110246
    59  H    0.131053
    60  C   -0.250375
    61  H    0.144271
    62  Cl  -0.445082
    63  Pd   0.130971
 Sum of Mulliken charges =  -0.00000

 Dipole moment (field-independent basis, Debye):
    X=              0.6792    Y=             12.0403    Z=              1.2054  Tot=             12.1195
 Quadrupole moment (field-independent basis, Debye-Ang):
   XX=           -191.1457   YY=           -228.4919   ZZ=           -204.0987
   XY=             -2.3318   XZ=              1.2509   YZ=             -1.9919

 Summary of Natural Population Analysis:

                                       Natural Population
                Natural  -----------------------------------------------
    Atom  No    Charge         Core      Valence    Rydberg      Total
 -----------------------------------------------------------------------
     Cl    1   -0.46164      9.99965     7.45282    0.00917    17.46164
      P    2    1.16813      9.99569     3.78410    0.05209    13.83187
      P    3    1.17060      9.99569     3.77839    0.05532    13.82940
      C    4   -0.34102      1.99896     4.30611    0.03595     6.34102
      C    5   -0.35043      1.99896     4.31605    0.03542     6.35043
      C    6   -0.50524      1.99936     4.47794    0.02793     6.50524
      H    7    0.28322      0.00000     0.71526    0.00153     0.71678
      C    8   -0.48092      1.99938     4.45601    0.02552     6.48092
      H    9    0.22896      0.00000     0.76911    0.00192     0.77104
      C   10   -0.47646      1.99938     4.45056    0.02653     6.47646
      H   11    0.22300      0.00000     0.77493    0.00206     0.77700
      C   12   -0.49647      1.99937     4.47005    0.02705     6.49647
      H   13    0.27314      0.00000     0.72541    0.00145     0.72686
      C   14   -0.41836      1.99941     4.40400    0.01495     6.41836
      H   15    0.22972      0.00000     0.76877    0.00151     0.77028
      H   16    0.19720      0.00000     0.80095    0.00184     0.80280
      C   17   -0.41481      1.99943     4.40049    0.01489     6.41481
      H   18    0.22331      0.00000     0.77523    0.00146     0.77669
      H   19    0.22339      0.00000     0.77493    0.00168     0.77661
      C   20   -0.42282      1.99942     4.40898    0.01443     6.42282
      H   21    0.22288      0.00000     0.77560    0.00152     0.77712
      H   22    0.24142      0.00000     0.75707    0.00151     0.75858
      C   23   -0.40678      1.99942     4.39254    0.01481     6.40678
      H   24    0.23076      0.00000     0.76777    0.00147     0.76924
      H   25    0.19454      0.00000     0.80375    0.00172     0.80546
      C   26   -0.40765      1.99940     4.39280    0.01545     6.40765
      H   27    0.21173      0.00000     0.78639    0.00188     0.78827
      H   28    0.22759      0.00000     0.77091    0.00149     0.77241
      C   29   -0.42269      1.99944     4.40749    0.01576     6.42269
      H   30    0.20972      0.00000     0.78856    0.00171     0.79028
      H   31    0.24907      0.00000     0.74937    0.00156     0.75093
      C   32   -0.42066      1.99943     4.40625    0.01498     6.42066
      H   33    0.20838      0.00000     0.78989    0.00173     0.79162
      H   34    0.25003      0.00000     0.74841    0.00156     0.74997
      C   35   -0.40745      1.99943     4.39205    0.01597     6.40745
      H   36    0.20202      0.00000     0.79583    0.00216     0.79798
      H   37    0.21777      0.00000     0.78047    0.00176     0.78223
      C   38   -0.62197      1.99949     4.61078    0.01170     6.62197
      H   39    0.20354      0.00000     0.79509    0.00136     0.79646
      H   40    0.21089      0.00000     0.78720    0.00191     0.78911
      H   41    0.21986      0.00000     0.77921    0.00093     0.78014
      C   42   -0.61215      1.99947     4.60152    0.01116     6.61215
      H   43    0.19796      0.00000     0.80080    0.00124     0.80204
      H   44    0.22478      0.00000     0.77435    0.00087     0.77522
      H   45    0.22531      0.00000     0.77333    0.00136     0.77469
      C   46   -0.61436      1.99948     4.60414    0.01074     6.61436
      H   47    0.21406      0.00000     0.78431    0.00163     0.78594
      H   48    0.20029      0.00000     0.79843    0.00127     0.79971
      H   49    0.22414      0.00000     0.77502    0.00085     0.77586
      C   50   -0.61736      1.99949     4.60592    0.01195     6.61736
      H   51    0.21748      0.00000     0.78159    0.00093     0.78252
      H   52    0.21952      0.00000     0.77930    0.00119     0.78048
      H   53    0.20827      0.00000     0.78990    0.00183     0.79173
      C   54   -0.20326      1.99909     4.18422    0.01995     6.20326
      H   55    0.22182      0.00000     0.77571    0.00246     0.77818
      C   56   -0.19492      1.99921     4.17814    0.01757     6.19492
      H   57    0.22685      0.00000     0.77193    0.00122     0.77315
      C   58   -0.19596      1.99921     4.17916    0.01759     6.19596
      H   59    0.22717      0.00000     0.77161    0.00122     0.77283
      C   60   -0.20746      1.99910     4.18780    0.02056     6.20746
      H   61    0.22214      0.00000     0.77490    0.00295     0.77786
     Cl   62   -0.45866      9.99965     7.44945    0.00956    17.45866
     Pd   63   -0.19117     35.98688    10.17761    0.02668    46.19117
 =======================================================================
   * Total *   -0.00000    119.96289   157.40667    0.63044   278.00000

 Normal termination of Gaussian 16 at Tue Dec 14 14:24:02 2021.
