 Gaussian 09, Revision E.01,

 ----------------------------------------------------------------------
 # PBE1PBE/def2TZVP int=(grid=ultrafine) empiricaldispersion=GD3BJ nmr=
 giao
 ----------------------------------------------------------------------

 --------------------
 SS_Et_DuPhos_3 title
 --------------------
 Symbolic Z-matrix:
 Charge =  0 Multiplicity = 1

 SCF Done:  E(RPBE1PBE) =  -1541.81380296     A.U. after   26 cycles

      1  P    Isotropic =   303.8834   Anisotropy =    50.4770

      2  P    Isotropic =   327.2933   Anisotropy =    76.3070

      3  C    Isotropic =    28.4310   Anisotropy =   204.7696

      4  C    Isotropic =    30.8420   Anisotropy =   204.8797

      5  C    Isotropic =   138.3504   Anisotropy =    26.0328

      6  H    Isotropic =    28.8970   Anisotropy =     6.8784

      7  C    Isotropic =   132.8129   Anisotropy =    14.9235

      8  H    Isotropic =    29.6304   Anisotropy =     2.8714

      9  C    Isotropic =   133.3674   Anisotropy =    24.7589

     10  H    Isotropic =    28.6907   Anisotropy =     3.5024

     11  C    Isotropic =   139.0772   Anisotropy =    20.6214

     12  H    Isotropic =    29.1018   Anisotropy =     6.3180

     13  C    Isotropic =   148.0580   Anisotropy =    35.1012

     14  H    Isotropic =    29.2906   Anisotropy =     9.3769

     15  H    Isotropic =    29.6908   Anisotropy =    10.5326

     16  C    Isotropic =   145.6876   Anisotropy =    30.2031

     17  H    Isotropic =    29.1237   Anisotropy =     8.2719

     18  H    Isotropic =    29.6555   Anisotropy =    10.7247

     19  C    Isotropic =   151.8932   Anisotropy =    23.0446

     20  H    Isotropic =    29.6304   Anisotropy =    11.0970

     21  H    Isotropic =    29.5734   Anisotropy =     7.4552

     22  C    Isotropic =   144.9050   Anisotropy =    27.4673

     23  H    Isotropic =    29.2912   Anisotropy =    10.4307

     24  H    Isotropic =    29.7273   Anisotropy =     7.6295

     25  C    Isotropic =   156.4052   Anisotropy =    21.7908

     26  H    Isotropic =    29.6180   Anisotropy =     4.5850

     27  H    Isotropic =    30.0130   Anisotropy =    10.4735

     28  C    Isotropic =   152.9061   Anisotropy =    27.3052

     29  H    Isotropic =    29.9995   Anisotropy =    10.0674

     30  H    Isotropic =    29.9913   Anisotropy =     5.7437

     31  C    Isotropic =   159.4809   Anisotropy =    15.5621

     32  H    Isotropic =    29.7173   Anisotropy =     7.6764

     33  H    Isotropic =    29.7018   Anisotropy =     9.9528

     34  C    Isotropic =   157.4757   Anisotropy =    23.4983

     35  H    Isotropic =    29.9594   Anisotropy =     5.2277

     36  H    Isotropic =    29.8090   Anisotropy =    10.0775

     37  C    Isotropic =   169.4272   Anisotropy =    22.6904

     38  H    Isotropic =    30.9834   Anisotropy =    11.4546

     39  H    Isotropic =    31.5207   Anisotropy =    10.0314

     40  H    Isotropic =    31.0281   Anisotropy =     8.1862

     41  C    Isotropic =   169.0270   Anisotropy =    20.5504

     42  H    Isotropic =    29.7406   Anisotropy =     7.5376

     43  H    Isotropic =    30.4120   Anisotropy =    11.3287

     44  H    Isotropic =    30.9745   Anisotropy =     6.4410

     45  C    Isotropic =   176.4391   Anisotropy =    15.1038

     46  H    Isotropic =    30.5233   Anisotropy =     8.4054

     47  H    Isotropic =    29.8411   Anisotropy =     7.4934

     48  H    Isotropic =    30.6050   Anisotropy =    11.1381

     49  C    Isotropic =   168.4534   Anisotropy =    22.8026

     50  H    Isotropic =    30.7797   Anisotropy =     7.8458

     51  H    Isotropic =    31.1214   Anisotropy =     8.7493

     52  H    Isotropic =    30.8251   Anisotropy =    10.9778

     53  C    Isotropic =    43.5743   Anisotropy =   179.6872

     54  H    Isotropic =    23.3329   Anisotropy =    10.8081

     55  C    Isotropic =    51.4018   Anisotropy =   184.4857

     56  H    Isotropic =    23.8527   Anisotropy =     5.4971

     57  C    Isotropic =    51.8375   Anisotropy =   184.2074

     58  H    Isotropic =    23.8457   Anisotropy =     5.3076

     59  C    Isotropic =    43.1730   Anisotropy =   183.1737

     60  H    Isotropic =    23.3742   Anisotropy =    10.3743

 Normal termination of Gaussian 09 at Sun Dec  5 09:55:46 2021.
 Gaussian 09:  ES64L-G09RevE.01 30-Nov-2015

 ----------------------------------------------------------------------
 # PBE1PBE/def2TZVP int=(grid=ultrafine) empiricaldispersion=GD3BJ pop=
 nbo guess=read geom=check
 ----------------------------------------------------------------------

 --------------------
 SS_Et_DuPhos_3 title
 --------------------
 Structure from the checkpoint file:  "SS_Et_DuPhos_3_SPE_NoPd.chk"
 Charge =  0 Multiplicity = 1

                         Standard orientation:
 ---------------------------------------------------------------------
 Center     Atomic      Atomic             Coordinates (Angstroms)
 Number     Number       Type             X           Y           Z
 ---------------------------------------------------------------------
      1         15           0       -1.528135   -0.017909   -0.576572
      2         15           0        1.594472    0.049245   -0.509766
      3          6           0       -0.706130    0.067383    1.079968
      4          6           0        0.708104    0.095100    1.106949
      5          6           0       -2.692700   -1.499225   -0.699547
      6          1           0       -2.338541   -2.037349   -1.596298
      7          6           0       -2.871439    1.308048   -0.464163
      8          1           0       -2.611201    1.932612    0.410872
      9          6           0        2.798577   -1.385589   -0.350448
     10          1           0        2.975660   -1.438688    0.744345
     11          6           0        2.933636    1.370922   -0.595042
     12          1           0        2.853559    1.680274   -1.655072
     13          6           0       -4.055149   -0.829287   -0.999952
     14          1           0       -4.101696   -0.606137   -2.079924
     15          1           0       -4.884581   -1.518556   -0.759688
     16          6           0       -4.152720    0.480195   -0.199777
     17          1           0       -4.246067    0.252063    0.879266
     18          1           0       -5.047044    1.064366   -0.481850
     19          6           0        4.077869   -0.815827   -0.992986
     20          1           0        4.941454   -1.469281   -0.773865
     21          1           0        3.956123   -0.758191   -2.089227
     22          6           0        4.260944    0.598154   -0.415824
     23          1           0        5.082878    1.143560   -0.912069
     24          1           0        4.514420    0.533861    0.661695
     25          6           0       -2.700168   -2.464471    0.497362
     26          1           0       -2.947536   -1.933637    1.435270
     27          1           0       -3.530639   -3.175978    0.325319
     28          6           0       -2.968823    2.215116   -1.704891
     29          1           0       -3.884076    2.826338   -1.580772
     30          1           0       -3.103680    1.598126   -2.610023
     31          6           0        2.328222   -2.778905   -0.800779
     32          1           0        1.479381   -3.083828   -0.160599
     33          1           0        3.152220   -3.478142   -0.556249
     34          6           0        2.750366    2.595651    0.307449
     35          1           0        2.776988    2.294069    1.371705
     36          1           0        3.631719    3.248186    0.154595
     37          6           0       -1.393320   -3.246440    0.667498
     38          1           0       -1.484706   -4.004088    1.463995
     39          1           0       -0.556615   -2.580116    0.937287
     40          1           0       -1.122080   -3.764931   -0.268934
     41          6           0       -1.757161    3.129338   -1.895800
     42          1           0       -0.846534    2.534866   -2.099705
     43          1           0       -1.907183    3.799623   -2.758312
     44          1           0       -1.571190    3.753041   -1.001907
     45          6           0        1.940743   -2.941482   -2.273276
     46          1           0        2.741400   -2.612318   -2.954934
     47          1           0        1.045809   -2.346426   -2.527419
     48          1           0        1.719492   -4.001266   -2.487812
     49          6           0        1.469489    3.386007    0.020349
     50          1           0        1.406465    3.668496   -1.044364
     51          1           0        0.570436    2.790631    0.256385
     52          1           0        1.427816    4.307812    0.624913
     53          6           0       -1.422381    0.141426    2.290175
     54          1           0       -2.517002    0.148495    2.280950
     55          6           0       -0.743208    0.214297    3.513191
     56          1           0       -1.310318    0.270811    4.447666
     57          6           0        0.659018    0.213727    3.540274
     58          1           0        1.190288    0.266974    4.495713
     59          6           0        1.381710    0.156084    2.341867
     60          1           0        2.476644    0.163356    2.368551
 ---------------------------------------------------------------------

 SCF Done:  E(RPBE1PBE) =  -1541.81380297     A.U. after    2 cycles

 The electronic state is 1-A.
 Alpha  occ. eigenvalues --  -77.17549 -77.17294 -10.24285 -10.24086 -10.23904
 Alpha  occ. eigenvalues --  -10.23861 -10.23816 -10.23786 -10.22841 -10.22709
 Alpha  occ. eigenvalues --  -10.22501 -10.22438 -10.22199 -10.22146 -10.22098
 Alpha  occ. eigenvalues --  -10.22086 -10.22061 -10.22009 -10.21740 -10.21599
 Alpha  occ. eigenvalues --  -10.20756 -10.20587 -10.20250 -10.20212  -6.57238
 Alpha  occ. eigenvalues --   -6.57019  -4.70835  -4.70797  -4.70623  -4.70566
 Alpha  occ. eigenvalues --   -4.70345  -4.70123  -0.88449  -0.84976  -0.84850
 Alpha  occ. eigenvalues --   -0.80286  -0.80197  -0.77801  -0.77446  -0.76918
 Alpha  occ. eigenvalues --   -0.76761  -0.71140  -0.70834  -0.68478  -0.67805
 Alpha  occ. eigenvalues --   -0.64009  -0.63763  -0.62223  -0.61655  -0.61405
 Alpha  occ. eigenvalues --   -0.60207  -0.57139  -0.56090  -0.54930  -0.52427
 Alpha  occ. eigenvalues --   -0.50259  -0.48399  -0.47981  -0.47776  -0.47156
 Alpha  occ. eigenvalues --   -0.46281  -0.45847  -0.45598  -0.45059  -0.44555
 Alpha  occ. eigenvalues --   -0.44061  -0.43091  -0.42603  -0.42352  -0.41685
 Alpha  occ. eigenvalues --   -0.40913  -0.40786  -0.39879  -0.39104  -0.38787
 Alpha  occ. eigenvalues --   -0.38479  -0.37428  -0.36789  -0.36618  -0.36287
 Alpha  occ. eigenvalues --   -0.35694  -0.35412  -0.35257  -0.34985  -0.34582
 Alpha  occ. eigenvalues --   -0.33393  -0.33276  -0.33136  -0.32768  -0.32343
 Alpha  occ. eigenvalues --   -0.31960  -0.31621  -0.31074  -0.30611  -0.29815
 Alpha  occ. eigenvalues --   -0.26772  -0.25972  -0.23567  -0.17271
 Alpha virt. eigenvalues --   -0.03023  -0.02989   0.03562   0.03708   0.04113
 Alpha virt. eigenvalues --    0.04642   0.04801   0.05471   0.05748   0.07017
 Alpha virt. eigenvalues --    0.07245   0.07438   0.07642   0.08392   0.08496

 Mulliken charges:
               1
     1  P   -0.013472
     2  P   -0.007778
     3  C   -0.032507
     4  C    0.040438
     5  C   -0.089642
     6  H    0.098558
     7  C   -0.109245
     8  H    0.103769
     9  C   -0.080785
    10  H    0.080160
    11  C   -0.112631
    12  H    0.093284
    13  C   -0.176296
    14  H    0.118962
    15  H    0.101569
    16  C   -0.191456
    17  H    0.110296
    18  H    0.095318
    19  C   -0.185261
    20  H    0.106374
    21  H    0.105785
    22  C   -0.171196
    23  H    0.104157
    24  H    0.089820
    25  C   -0.163825
    26  H    0.092825
    27  H    0.094717
    28  C   -0.163841
    29  H    0.095016
    30  H    0.094854
    31  C   -0.163227
    32  H    0.114217
    33  H    0.094198
    34  C   -0.127868
    35  H    0.091181
    36  H    0.095895
    37  C   -0.393472
    38  H    0.121758
    39  H    0.134651
    40  H    0.120053
    41  C   -0.406921
    42  H    0.147424
    43  H    0.123696
    44  H    0.114264
    45  C   -0.412329
    46  H    0.115260
    47  H    0.143880
    48  H    0.121545
    49  C   -0.395139
    50  H    0.120253
    51  H    0.136221
    52  H    0.121308
    53  C   -0.144460
    54  H    0.124122
    55  C   -0.154471
    56  H    0.117533
    57  C   -0.118311
    58  H    0.117836
    59  C   -0.224473
    60  H    0.137405
 Sum of Mulliken charges =  -0.00000

 Dipole moment (field-independent basis, Debye):
    X=             -0.0007    Y=             -0.0863    Z=              1.7610  Tot=              1.7631
 Quadrupole moment (field-independent basis, Debye-Ang):
   XX=           -157.0080   YY=           -166.6735   ZZ=           -161.5509
   XY=              1.1708   XZ=             -0.0126   YZ=              0.4043

 Summary of Natural Population Analysis:

                                       Natural Population
                Natural  -----------------------------------------------
    Atom  No    Charge         Core      Valence    Rydberg      Total
 -----------------------------------------------------------------------
      P    1    0.75264      9.99829     4.22173    0.02734    14.24736
      P    2    0.75584      9.99825     4.21788    0.02803    14.24416
      C    3   -0.31034      1.99897     4.27878    0.03259     6.31034
      C    4   -0.32107      1.99898     4.28914    0.03295     6.32107
      C    5   -0.47276      1.99942     4.44876    0.02458     6.47276
      H    6    0.23055      0.00000     0.76802    0.00144     0.76945
      C    7   -0.47858      1.99943     4.45457    0.02457     6.47858
      H    8    0.22607      0.00000     0.77171    0.00222     0.77393
      C    9   -0.46688      1.99942     4.44232    0.02514     6.46688
      H   10    0.20906      0.00000     0.78806    0.00288     0.79094
      C   11   -0.47089      1.99942     4.44618    0.02528     6.47089
      H   12    0.22538      0.00000     0.77317    0.00145     0.77462
      C   13   -0.41825      1.99943     4.40400    0.01481     6.41825
      H   14    0.21111      0.00000     0.78730    0.00158     0.78889
      H   15    0.21784      0.00000     0.78035    0.00180     0.78216
      C   16   -0.41027      1.99944     4.39697    0.01387     6.41027
      H   17    0.20225      0.00000     0.79628    0.00147     0.79775
      H   18    0.21239      0.00000     0.78565    0.00196     0.78761
      C   19   -0.41894      1.99942     4.40519    0.01433     6.41894
      H   20    0.21728      0.00000     0.78096    0.00176     0.78272
      H   21    0.20580      0.00000     0.79237    0.00184     0.79420
      C   22   -0.40236      1.99944     4.38846    0.01447     6.40236
      H   23    0.21308      0.00000     0.78508    0.00184     0.78692
      H   24    0.19814      0.00000     0.80014    0.00173     0.80186
      C   25   -0.40789      1.99943     4.39336    0.01510     6.40789
      H   26    0.20229      0.00000     0.79569    0.00202     0.79771
      H   27    0.20016      0.00000     0.79755    0.00229     0.79984
      C   28   -0.40365      1.99943     4.38881    0.01541     6.40365
      H   29    0.19880      0.00000     0.79923    0.00197     0.80120
      H   30    0.20376      0.00000     0.79423    0.00201     0.79624
      C   31   -0.40196      1.99942     4.38746    0.01508     6.40196
      H   32    0.21069      0.00000     0.78763    0.00168     0.78931
      H   33    0.20226      0.00000     0.79585    0.00189     0.79774
      C   34   -0.40313      1.99943     4.38901    0.01469     6.40313
      H   35    0.20333      0.00000     0.79462    0.00206     0.79667
      H   36    0.20208      0.00000     0.79581    0.00211     0.79792
      C   37   -0.61762      1.99949     4.60694    0.01119     6.61762
      H   38    0.21390      0.00000     0.78512    0.00098     0.78610
      H   39    0.21438      0.00000     0.78389    0.00173     0.78562
      H   40    0.20558      0.00000     0.79297    0.00145     0.79442
      C   41   -0.61971      1.99949     4.61336    0.00686     6.61971
      H   42    0.22353      0.00000     0.77491    0.00156     0.77647
      H   43    0.21092      0.00000     0.78789    0.00120     0.78908
      H   44    0.20304      0.00000     0.79551    0.00145     0.79696
      C   45   -0.62443      1.99949     4.61769    0.00725     6.62443
      H   46    0.20299      0.00000     0.79545    0.00156     0.79701
      H   47    0.22124      0.00000     0.77724    0.00152     0.77876
      H   48    0.21069      0.00000     0.78814    0.00117     0.78931
      C   49   -0.61510      1.99949     4.60801    0.00760     6.61510
      H   50    0.20731      0.00000     0.79104    0.00166     0.79269
      H   51    0.21431      0.00000     0.78393    0.00176     0.78569
      H   52    0.21217      0.00000     0.78661    0.00122     0.78783
      C   53   -0.21531      1.99909     4.19631    0.01991     6.21531
      H   54    0.21501      0.00000     0.78222    0.00276     0.78499
      C   55   -0.20724      1.99921     4.19010    0.01794     6.20724
      H   56    0.21862      0.00000     0.78008    0.00130     0.78138
      C   57   -0.20794      1.99921     4.19079    0.01795     6.20794
      H   58    0.21856      0.00000     0.78014    0.00130     0.78144
      C   59   -0.21368      1.99910     4.19441    0.02018     6.21368
      H   60    0.21497      0.00000     0.78215    0.00288     0.78503
 =======================================================================
   * Total *    0.00000     63.98218   133.50722    0.51060   198.00000

 Normal termination of Gaussian 09 at Sun Dec  5 09:59:05 2021.
