 Gaussian 09, Revision E.01,

 ----------------------------------------------------------------------
 # PBE1PBE/def2TZVP int=(grid=ultrafine) empiricaldispersion=GD3BJ nmr=
 giao
 ----------------------------------------------------------------------

 --------------------
 SS_Et_DuPhos_4 title
 --------------------
 Symbolic Z-matrix:
 Charge =  0 Multiplicity = 1

 SCF Done:  E(RPBE1PBE) =  -1541.81398551     A.U. after   27 cycles

      1  P    Isotropic =   329.6516   Anisotropy =    72.5208

      2  P    Isotropic =   329.6479   Anisotropy =    72.5071

      3  C    Isotropic =    29.5101   Anisotropy =   206.2203

      4  C    Isotropic =    29.5089   Anisotropy =   206.2223

      5  C    Isotropic =   139.2453   Anisotropy =    21.3981

      6  H    Isotropic =    29.0546   Anisotropy =     6.2751

      7  C    Isotropic =   132.9638   Anisotropy =    25.5236

      8  H    Isotropic =    28.7255   Anisotropy =     3.6595

      9  C    Isotropic =   132.9647   Anisotropy =    25.5224

     10  H    Isotropic =    28.7255   Anisotropy =     3.6596

     11  C    Isotropic =   139.2451   Anisotropy =    21.3989

     12  H    Isotropic =    29.0545   Anisotropy =     6.2749

     13  C    Isotropic =   145.0892   Anisotropy =    27.3233

     14  H    Isotropic =    29.2909   Anisotropy =    10.3714

     15  H    Isotropic =    29.7421   Anisotropy =     7.6656

     16  C    Isotropic =   151.7308   Anisotropy =    23.6582

     17  H    Isotropic =    29.6489   Anisotropy =    11.0872

     18  H    Isotropic =    29.5777   Anisotropy =     7.3703

     19  C    Isotropic =   151.7320   Anisotropy =    23.6569

     20  H    Isotropic =    29.6489   Anisotropy =    11.0871

     21  H    Isotropic =    29.5776   Anisotropy =     7.3705

     22  C    Isotropic =   145.0896   Anisotropy =    27.3243

     23  H    Isotropic =    29.2909   Anisotropy =    10.3713

     24  H    Isotropic =    29.7421   Anisotropy =     7.6656

     25  C    Isotropic =   157.3709   Anisotropy =    23.6783

     26  H    Isotropic =    29.9557   Anisotropy =     5.2297

     27  H    Isotropic =    29.7942   Anisotropy =    10.0967

     28  C    Isotropic =   159.2475   Anisotropy =    16.0503

     29  H    Isotropic =    29.7799   Anisotropy =     6.7458

     30  H    Isotropic =    29.7117   Anisotropy =    10.0022

     31  C    Isotropic =   159.2479   Anisotropy =    16.0480

     32  H    Isotropic =    29.7798   Anisotropy =     6.7471

     33  H    Isotropic =    29.7117   Anisotropy =    10.0020

     34  C    Isotropic =   157.3706   Anisotropy =    23.6794

     35  H    Isotropic =    29.9559   Anisotropy =     5.2297

     36  H    Isotropic =    29.7942   Anisotropy =    10.0969

     37  C    Isotropic =   169.3909   Anisotropy =    24.4917

     38  H    Isotropic =    30.8457   Anisotropy =    11.0655

     39  H    Isotropic =    30.9481   Anisotropy =     9.4651

     40  H    Isotropic =    30.7096   Anisotropy =     7.8772

     41  C    Isotropic =   176.1279   Anisotropy =    14.6040

     42  H    Isotropic =    30.5564   Anisotropy =     8.2763

     43  H    Isotropic =    30.6759   Anisotropy =    11.1012

     44  H    Isotropic =    29.8818   Anisotropy =     7.5611

     45  C    Isotropic =   176.1300   Anisotropy =    14.6063

     46  H    Isotropic =    30.5564   Anisotropy =     8.2766

     47  H    Isotropic =    29.8821   Anisotropy =     7.5599

     48  H    Isotropic =    30.6758   Anisotropy =    11.1014

     49  C    Isotropic =   169.3905   Anisotropy =    24.4908

     50  H    Isotropic =    30.7095   Anisotropy =     7.8770

     51  H    Isotropic =    30.9481   Anisotropy =     9.4652

     52  H    Isotropic =    30.8458   Anisotropy =    11.0653

     53  C    Isotropic =    42.9033   Anisotropy =   183.8508

     54  H    Isotropic =    23.3528   Anisotropy =    10.5099

     55  C    Isotropic =    51.7232   Anisotropy =   184.0480

     56  H    Isotropic =    23.8335   Anisotropy =     5.3778

     57  C    Isotropic =    51.7230   Anisotropy =   184.0481

     58  H    Isotropic =    23.8335   Anisotropy =     5.3778

     59  C    Isotropic =    42.9039   Anisotropy =   183.8531

     60  H    Isotropic =    23.3528   Anisotropy =    10.5099

 Normal termination of Gaussian 09 at Sun Dec  5 10:01:25 2021.
 Gaussian 09:  ES64L-G09RevE.01 30-Nov-2015

 ----------------------------------------------------------------------
 # PBE1PBE/def2TZVP int=(grid=ultrafine) empiricaldispersion=GD3BJ pop=
 nbo guess=read geom=check
 ----------------------------------------------------------------------

 --------------------
 SS_Et_DuPhos_4 title
 --------------------
 Structure from the checkpoint file:  "SS_Et_DuPhos_4_SPE_NoPd.chk"
 Charge =  0 Multiplicity = 1

                         Standard orientation:
 ---------------------------------------------------------------------
 Center     Atomic      Atomic             Coordinates (Angstroms)
 Number     Number       Type             X           Y           Z
 ---------------------------------------------------------------------
      1         15           0        1.560014    0.072307   -0.490241
      2         15           0       -1.559987   -0.072346   -0.490219
      3          6           0        0.706012    0.046346    1.147188
      4          6           0       -0.705954   -0.046311    1.147198
      5          6           0        2.812145    1.477376   -0.597403
      6          1           0        2.681350    1.793383   -1.650315
      7          6           0        2.860438   -1.282262   -0.369787
      8          1           0        3.071616   -1.325143    0.719297
      9          6           0       -2.860435    1.282191   -0.369737
     10          1           0       -3.071560    1.325065    0.719357
     11          6           0       -2.812083   -1.477455   -0.597309
     12          1           0       -2.681299   -1.793486   -1.650214
     13          6           0        4.190894    0.790948   -0.465186
     14          1           0        4.960077    1.390792   -0.982699
     15          1           0        4.480949    0.738299    0.603695
     16          6           0        4.081685   -0.628749   -1.045025
     17          1           0        4.990151   -1.227291   -0.851929
     18          1           0        3.926622   -0.576129   -2.137237
     19          6           0       -4.081707    0.628647   -1.044902
     20          1           0       -4.990178    1.227162   -0.851742
     21          1           0       -3.926710    0.576045   -2.137122
     22          6           0       -4.190850   -0.791063   -0.465078
     23          1           0       -4.960020   -1.390933   -0.982581
     24          1           0       -4.480891   -0.738429    0.603808
     25          6           0        2.582421    2.676827    0.327724
     26          1           0        2.655724    2.362562    1.386349
     27          1           0        3.419047    3.382709    0.161381
     28          6           0        2.482892   -2.705313   -0.814109
     29          1           0        1.710009   -3.093755   -0.125458
     30          1           0        3.379815   -3.331165   -0.636155
     31          6           0       -2.482959    2.705260   -0.814073
     32          1           0       -1.709863    3.093634   -0.125619
     33          1           0       -3.379813    3.331122   -0.635807
     34          6           0       -2.582299   -2.676873    0.327848
     35          1           0       -2.655670   -2.362605    1.386467
     36          1           0       -3.418855   -3.382831    0.161481
     37          6           0        1.249410    3.392041    0.086831
     38          1           0        1.168708    4.303849    0.702420
     39          1           0        0.399332    2.737773    0.346077
     40          1           0        1.135586    3.678329   -0.972838
     41          6           0        2.014207   -2.883745   -2.260761
     42          1           0        2.731512   -2.469820   -2.987253
     43          1           0        1.877169   -3.956478   -2.480961
     44          1           0        1.052636   -2.371524   -2.442675
     45          6           0       -2.014727    2.883794   -2.260860
     46          1           0       -2.732281    2.469956   -2.987158
     47          1           0       -1.053235    2.371545   -2.443123
     48          1           0       -1.877711    3.956538   -2.481017
     49          6           0       -1.249213   -3.391964    0.087016
     50          1           0       -1.135327   -3.678261   -0.972645
     51          1           0       -0.399211   -2.737601    0.346273
     52          1           0       -1.168439   -4.303750    0.702627
     53          6           0        1.399887    0.091912    2.371287
     54          1           0        2.493029    0.160705    2.379774
     55          6           0        0.699764    0.047099    3.583968
     56          1           0        1.247260    0.085673    4.530947
     57          6           0       -0.699679   -0.046861    3.583979
     58          1           0       -1.247165   -0.085346    4.530967
     59          6           0       -1.399816   -0.091758    2.371310
     60          1           0       -2.492960   -0.160517    2.379817
 ---------------------------------------------------------------------

 SCF Done:  E(RPBE1PBE) =  -1541.81398551     A.U. after    2 cycles

 The electronic state is 1-A.
 Alpha  occ. eigenvalues --  -77.17308 -77.17308 -10.24171 -10.24120 -10.23915
 Alpha  occ. eigenvalues --  -10.23874 -10.23830 -10.23816 -10.22729 -10.22729
 Alpha  occ. eigenvalues --  -10.22480 -10.22480 -10.22181 -10.22181 -10.22063
 Alpha  occ. eigenvalues --  -10.22063 -10.22059 -10.22059 -10.21712 -10.21712
 Alpha  occ. eigenvalues --  -10.20722 -10.20722 -10.20178 -10.20178  -6.57023
 Alpha  occ. eigenvalues --   -6.57023  -4.70628  -4.70628  -4.70571  -4.70571
 Alpha  occ. eigenvalues --   -4.70125  -4.70125  -0.88428  -0.84982  -0.84882
 Alpha  occ. eigenvalues --   -0.80334  -0.80210  -0.77797  -0.77457  -0.76993
 Alpha  occ. eigenvalues --   -0.76827  -0.70939  -0.70799  -0.68572  -0.67950
 Alpha  occ. eigenvalues --   -0.64033  -0.63965  -0.61862  -0.61450  -0.61371
 Alpha  occ. eigenvalues --   -0.60509  -0.57397  -0.56815  -0.54589  -0.51786
 Alpha  occ. eigenvalues --   -0.49717  -0.48450  -0.48360  -0.47403  -0.47212
 Alpha  occ. eigenvalues --   -0.46312  -0.46072  -0.45282  -0.45098  -0.44552
 Alpha  occ. eigenvalues --   -0.43883  -0.43119  -0.43058  -0.41833  -0.41668
 Alpha  occ. eigenvalues --   -0.41020  -0.40854  -0.39877  -0.39099  -0.38658
 Alpha  occ. eigenvalues --   -0.38532  -0.38334  -0.36724  -0.36549  -0.36041
 Alpha  occ. eigenvalues --   -0.35725  -0.35662  -0.35120  -0.35084  -0.34687
 Alpha  occ. eigenvalues --   -0.33380  -0.33282  -0.32786  -0.32780  -0.32382
 Alpha  occ. eigenvalues --   -0.32196  -0.31585  -0.30845  -0.30752  -0.29663
 Alpha  occ. eigenvalues --   -0.26747  -0.25874  -0.23486  -0.17126
 Alpha virt. eigenvalues --   -0.03032  -0.03006   0.03576   0.03778   0.04081
 Alpha virt. eigenvalues --    0.04538   0.04744   0.05526   0.05920   0.07094
 Alpha virt. eigenvalues --    0.07256   0.07430   0.07663   0.07809   0.08592

 Mulliken charges:
               1
     1  P   -0.012436
     2  P   -0.012422
     3  C    0.024586
     4  C    0.024525
     5  C   -0.112494
     6  H    0.093561
     7  C   -0.083010
     8  H    0.079331
     9  C   -0.082995
    10  H    0.079324
    11  C   -0.112490
    12  H    0.093562
    13  C   -0.170821
    14  H    0.104378
    15  H    0.089460
    16  C   -0.184879
    17  H    0.106378
    18  H    0.105187
    19  C   -0.184886
    20  H    0.106378
    21  H    0.105188
    22  C   -0.170827
    23  H    0.104379
    24  H    0.089460
    25  C   -0.128477
    26  H    0.092376
    27  H    0.096423
    28  C   -0.173019
    29  H    0.120042
    30  H    0.094182
    31  C   -0.173001
    32  H    0.120036
    33  H    0.094181
    34  C   -0.128477
    35  H    0.092379
    36  H    0.096424
    37  C   -0.379973
    38  H    0.122218
    39  H    0.112136
    40  H    0.119244
    41  C   -0.407910
    42  H    0.115865
    43  H    0.121228
    44  H    0.144822
    45  C   -0.407917
    46  H    0.115870
    47  H    0.144815
    48  H    0.121232
    49  C   -0.379982
    50  H    0.119247
    51  H    0.112140
    52  H    0.122216
    53  C   -0.218224
    54  H    0.136663
    55  C   -0.124938
    56  H    0.118125
    57  C   -0.124947
    58  H    0.118125
    59  C   -0.218215
    60  H    0.136659
 Sum of Mulliken charges =  -0.00000

 Dipole moment (field-independent basis, Debye):
    X=             -0.0000    Y=              0.0001    Z=              1.8138  Tot=              1.8138
 Quadrupole moment (field-independent basis, Debye-Ang):
   XX=           -156.4711   YY=           -166.2546   ZZ=           -161.8132
   XY=              1.6381   XZ=             -0.0002   YZ=              0.0003

 Summary of Natural Population Analysis:

                                       Natural Population
                Natural  -----------------------------------------------
    Atom  No    Charge         Core      Valence    Rydberg      Total
 -----------------------------------------------------------------------
      P    1    0.75286      9.99826     4.22097    0.02792    14.24714
      P    2    0.75285      9.99826     4.22097    0.02792    14.24715
      C    3   -0.31635      1.99898     4.28462    0.03275     6.31635
      C    4   -0.31634      1.99898     4.28461    0.03275     6.31634
      C    5   -0.46974      1.99942     4.44498    0.02535     6.46974
      H    6    0.22504      0.00000     0.77351    0.00146     0.77496
      C    7   -0.46694      1.99942     4.44246    0.02506     6.46694
      H    8    0.20864      0.00000     0.78849    0.00288     0.79136
      C    9   -0.46694      1.99942     4.44246    0.02506     6.46694
      H   10    0.20864      0.00000     0.78849    0.00288     0.79136
      C   11   -0.46974      1.99942     4.44498    0.02535     6.46974
      H   12    0.22504      0.00000     0.77351    0.00146     0.77496
      C   13   -0.40264      1.99944     4.38869    0.01452     6.40264
      H   14    0.21320      0.00000     0.78497    0.00183     0.78680
      H   15    0.19827      0.00000     0.80000    0.00173     0.80173
      C   16   -0.41859      1.99942     4.40482    0.01436     6.41859
      H   17    0.21711      0.00000     0.78111    0.00178     0.78289
      H   18    0.20582      0.00000     0.79234    0.00184     0.79418
      C   19   -0.41859      1.99942     4.40482    0.01436     6.41859
      H   20    0.21711      0.00000     0.78111    0.00178     0.78289
      H   21    0.20581      0.00000     0.79234    0.00184     0.79419
      C   22   -0.40264      1.99944     4.38869    0.01452     6.40264
      H   23    0.21320      0.00000     0.78497    0.00183     0.78680
      H   24    0.19827      0.00000     0.80000    0.00173     0.80173
      C   25   -0.40268      1.99943     4.38858    0.01468     6.40268
      H   26    0.20326      0.00000     0.79467    0.00207     0.79674
      H   27    0.20213      0.00000     0.79575    0.00211     0.79787
      C   28   -0.40121      1.99942     4.38689    0.01490     6.40121
      H   29    0.20935      0.00000     0.78905    0.00159     0.79065
      H   30    0.20251      0.00000     0.79556    0.00192     0.79749
      C   31   -0.40121      1.99942     4.38689    0.01490     6.40121
      H   32    0.20935      0.00000     0.78905    0.00159     0.79065
      H   33    0.20251      0.00000     0.79556    0.00192     0.79749
      C   34   -0.40268      1.99943     4.38858    0.01468     6.40268
      H   35    0.20326      0.00000     0.79467    0.00207     0.79674
      H   36    0.20213      0.00000     0.79575    0.00211     0.79787
      C   37   -0.61558      1.99949     4.60834    0.00775     6.61558
      H   38    0.21276      0.00000     0.78603    0.00120     0.78724
      H   39    0.21158      0.00000     0.78666    0.00176     0.78842
      H   40    0.20757      0.00000     0.79072    0.00171     0.79243
      C   41   -0.62465      1.99949     4.61784    0.00732     6.62465
      H   42    0.20331      0.00000     0.79512    0.00158     0.79669
      H   43    0.21076      0.00000     0.78805    0.00119     0.78924
      H   44    0.22188      0.00000     0.77657    0.00155     0.77812
      C   45   -0.62465      1.99949     4.61784    0.00732     6.62465
      H   46    0.20331      0.00000     0.79512    0.00158     0.79669
      H   47    0.22187      0.00000     0.77658    0.00155     0.77813
      H   48    0.21076      0.00000     0.78805    0.00119     0.78924
      C   49   -0.61558      1.99949     4.60834    0.00775     6.61558
      H   50    0.20757      0.00000     0.79072    0.00171     0.79243
      H   51    0.21158      0.00000     0.78666    0.00176     0.78842
      H   52    0.21276      0.00000     0.78603    0.00120     0.78724
      C   53   -0.21373      1.99910     4.19442    0.02021     6.21373
      H   54    0.21472      0.00000     0.78244    0.00284     0.78528
      C   55   -0.20711      1.99921     4.18997    0.01793     6.20711
      H   56    0.21846      0.00000     0.78025    0.00130     0.78154
      C   57   -0.20711      1.99921     4.18997    0.01793     6.20711
      H   58    0.21846      0.00000     0.78025    0.00130     0.78154
      C   59   -0.21373      1.99910     4.19442    0.02021     6.21373
      H   60    0.21472      0.00000     0.78244    0.00284     0.78528
 =======================================================================
   * Total *   -0.00000     63.98211   133.50772    0.51017   198.00000

 Normal termination of Gaussian 09 at Sun Dec  5 10:04:43 2021.
