 Gaussian 09, Revision E.01,

 ----------------------------------------------------------------------
 # PBE1PBE gen pseudo=read int=(grid=ultrafine) empiricaldispersion=GD3
 BJ nmr=giao
 ----------------------------------------------------------------------

 --------------------
 SS_Et_DuPhos_5 title
 --------------------
 Symbolic Z-matrix:
 Charge =  0 Multiplicity = 1

 SCF Done:  E(RPBE1PBE) =  -2590.03845139     A.U. after   17 cycles

      1  Cl   Isotropic =   957.7258   Anisotropy =   471.5407

      2  P    Isotropic =   189.8291   Anisotropy =   141.7481

      3  P    Isotropic =   183.0535   Anisotropy =   164.3016

      4  C    Isotropic =    30.2312   Anisotropy =   177.8513

      5  C    Isotropic =    32.0300   Anisotropy =   180.2147

      6  C    Isotropic =   131.6474   Anisotropy =    18.2534

      7  H    Isotropic =    27.5108   Anisotropy =     4.8895

      8  C    Isotropic =   128.0217   Anisotropy =    31.0633

      9  H    Isotropic =    29.0275   Anisotropy =     4.7075

     10  C    Isotropic =   124.6370   Anisotropy =    18.4064

     11  H    Isotropic =    29.0919   Anisotropy =     5.2509

     12  C    Isotropic =   132.9827   Anisotropy =    26.3910

     13  H    Isotropic =    27.6439   Anisotropy =     3.4324

     14  C    Isotropic =   147.4785   Anisotropy =    26.1574

     15  H    Isotropic =    29.3029   Anisotropy =    11.5722

     16  H    Isotropic =    29.3130   Anisotropy =     8.3474

     17  C    Isotropic =   148.1588   Anisotropy =    28.0566

     18  H    Isotropic =    29.0712   Anisotropy =    11.5195

     19  H    Isotropic =    29.5381   Anisotropy =     7.8821

     20  C    Isotropic =   148.2246   Anisotropy =    23.0316

     21  H    Isotropic =    29.5422   Anisotropy =    11.8367

     22  H    Isotropic =    27.9912   Anisotropy =     5.7062

     23  C    Isotropic =   145.4210   Anisotropy =    24.6148

     24  H    Isotropic =    29.0564   Anisotropy =    11.1041

     25  H    Isotropic =    29.9180   Anisotropy =     9.0260

     26  C    Isotropic =   161.0282   Anisotropy =    21.2156

     27  H    Isotropic =    30.4077   Anisotropy =     2.9601

     28  H    Isotropic =    29.8593   Anisotropy =    11.0036

     29  C    Isotropic =   155.0506   Anisotropy =    22.1417

     30  H    Isotropic =    29.8861   Anisotropy =    11.0033

     31  H    Isotropic =    28.2607   Anisotropy =     5.7160

     32  C    Isotropic =   157.8282   Anisotropy =    20.9257

     33  H    Isotropic =    29.6670   Anisotropy =    10.6813

     34  H    Isotropic =    28.4487   Anisotropy =     6.1071

     35  C    Isotropic =   156.1909   Anisotropy =    25.4071

     36  H    Isotropic =    30.1289   Anisotropy =     5.4923

     37  H    Isotropic =    29.7311   Anisotropy =    11.0821

     38  C    Isotropic =   166.1114   Anisotropy =    15.3538

     39  H    Isotropic =    30.5932   Anisotropy =    10.7471

     40  H    Isotropic =    29.3861   Anisotropy =     9.1271

     41  H    Isotropic =    30.2358   Anisotropy =     8.8935

     42  C    Isotropic =   165.3603   Anisotropy =    17.3038

     43  H    Isotropic =    29.1669   Anisotropy =    10.5410

     44  H    Isotropic =    30.1439   Anisotropy =    11.5155

     45  H    Isotropic =    31.0362   Anisotropy =     7.1527

     46  C    Isotropic =   166.5413   Anisotropy =    20.3920

     47  H    Isotropic =    31.1850   Anisotropy =     7.7377

     48  H    Isotropic =    31.0097   Anisotropy =     9.6385

     49  H    Isotropic =    30.4325   Anisotropy =    10.7925

     50  C    Isotropic =   168.1113   Anisotropy =    19.3772

     51  H    Isotropic =    30.6141   Anisotropy =     6.6046

     52  H    Isotropic =    31.6203   Anisotropy =     8.3716

     53  H    Isotropic =    30.9203   Anisotropy =    11.7975

     54  C    Isotropic =    45.0668   Anisotropy =   183.3977

     55  H    Isotropic =    23.3390   Anisotropy =    12.2290

     56  C    Isotropic =    48.9755   Anisotropy =   190.1657

     57  H    Isotropic =    23.6075   Anisotropy =     5.6078

     58  C    Isotropic =    49.7694   Anisotropy =   189.9501

     59  H    Isotropic =    23.5975   Anisotropy =     5.5158

     60  C    Isotropic =    46.0206   Anisotropy =   185.0569

     61  H    Isotropic =    23.5398   Anisotropy =    11.2118

     62  Cl   Isotropic =  1001.4011   Anisotropy =   547.0639

     63  Pd   Isotropic =  -121.3915   Anisotropy =   218.5791

 Normal termination of Gaussian 09 at Sun Dec  5 10:29:05 2021.
 Gaussian 09:  ES64L-G09RevE.01 30-Nov-2015

 ----------------------------------------------------------------------
 # PBE1PBE gen pseudo=read int=(grid=ultrafine) empiricaldispersion=GD3
 BJ pop=nbo guess=read geom=check
 ----------------------------------------------------------------------

 --------------------
 SS_Et_DuPhos_5 title
 --------------------
 Structure from the checkpoint file:  "SS_Et_DuPhos_5_SPE.chk"
 Charge =  0 Multiplicity = 1

                         Standard orientation:
 ---------------------------------------------------------------------
 Center     Atomic      Atomic             Coordinates (Angstroms)
 Number     Number       Type             X           Y           Z
 ---------------------------------------------------------------------
      1         17           0       -1.913765   -2.876363   -0.126508
      2         15           0       -1.556458    0.317422   -0.026470
      3         15           0        1.595459    0.180262   -0.029832
      4          6           0       -0.610267    1.906255    0.137175
      5          6           0        0.804760    1.834960    0.167862
      6          6           0       -2.809021    0.207845    1.357279
      7          1           0       -3.105528   -0.858043    1.268475
      8          6           0       -2.849288    0.644443   -1.370122
      9          1           0       -2.574775    1.629304   -1.795056
     10          6           0        2.917988    0.045412    1.299627
     11          1           0        3.180799    1.096342    1.544601
     12          6           0        2.823962    0.212459   -1.470458
     13          1           0        2.624580   -0.757024   -1.964056
     14          6           0       -3.988267    1.067172    0.872771
     15          1           0       -4.891093    0.837987    1.467683
     16          1           0       -3.778406    2.141834    1.027540
     17          6           0       -4.205079    0.736694   -0.613635
     18          1           0       -4.871204    1.464266   -1.109302
     19          1           0       -4.693680   -0.252183   -0.683399
     20          6           0        4.102068   -0.580660    0.539897
     21          1           0        5.025143   -0.492543    1.140642
     22          1           0        3.898760   -1.652796    0.371330
     23          6           0        4.217523    0.158051   -0.799383
     24          1           0        4.942735   -0.324613   -1.477798
     25          1           0        4.573863    1.193344   -0.625063
     26          6           0       -2.289326    0.457717    2.779335
     27          1           0       -1.606759    1.329740    2.793400
     28          1           0       -3.151447    0.739484    3.414028
     29          6           0       -2.894362   -0.404814   -2.494591
     30          1           0       -3.781278   -0.170923   -3.115850
     31          1           0       -3.067138   -1.395958   -2.038624
     32          6           0        2.487074   -0.671224    2.584343
     33          1           0        3.399673   -1.020085    3.104264
     34          1           0        1.913847   -1.578007    2.318248
     35          6           0        2.682711    1.353865   -2.485977
     36          1           0        2.815423    2.325794   -1.974195
     37          1           0        3.534188    1.264854   -3.188466
     38          6           0       -1.606887   -0.784606    3.365799
     39          1           0       -1.196016   -0.583027    4.368942
     40          1           0       -0.785276   -1.133621    2.715444
     41          1           0       -2.324706   -1.618674    3.445426
     42          6           0       -1.644264   -0.463368   -3.369793
     43          1           0       -0.768533   -0.772165   -2.769342
     44          1           0       -1.768032   -1.206756   -4.174925
     45          1           0       -1.420946    0.513280   -3.835706
     46          6           0        1.686767    0.242513    3.517817
     47          1           0        0.785858    0.638824    3.018318
     48          1           0        2.295036    1.107415    3.839569
     49          1           0        1.356147   -0.295767    4.421174
     50          6           0        1.370438    1.355110   -3.270883
     51          1           0        1.210360    0.391120   -3.782207
     52          1           0        0.506643    1.526146   -2.606408
     53          1           0        1.367682    2.151922   -4.034030
     54          6           0       -1.231995    3.167907    0.221180
     55          1           0       -2.321161    3.248135    0.170748
     56          6           0       -0.468751    4.334272    0.362294
     57          1           0       -0.968997    5.305425    0.430673
     58          6           0        0.929742    4.257263    0.416468
     59          1           0        1.528054    5.166835    0.529134
     60          6           0        1.562576    3.012345    0.315419
     61          1           0        2.655982    2.957750    0.349072
     62         17           0        1.644334   -3.034320   -0.314280
     63         46           0       -0.053762   -1.357368   -0.143498
 ---------------------------------------------------------------------

 SCF Done:  E(RPBE1PBE) =  -2590.03845139     A.U. after    2 cycles

 The electronic state is 1-A.
 Alpha  occ. eigenvalues -- -101.61326-101.61257 -77.26003 -77.25986 -10.28032
 Alpha  occ. eigenvalues --  -10.27966 -10.27219 -10.27144 -10.26966 -10.26903
 Alpha  occ. eigenvalues --  -10.25936 -10.25674 -10.25590 -10.25181 -10.24463
 Alpha  occ. eigenvalues --  -10.24246 -10.24135 -10.24063 -10.23653 -10.23153
 Alpha  occ. eigenvalues --  -10.22870 -10.22393 -10.22284 -10.21916 -10.21130
 Alpha  occ. eigenvalues --  -10.20927  -9.43836  -9.43769  -7.16995  -7.16924
 Alpha  occ. eigenvalues --   -7.16575  -7.16539  -7.16508  -7.16475  -6.65291
 Alpha  occ. eigenvalues --   -6.65264  -4.78902  -4.78881  -4.78798  -4.78770
 Alpha  occ. eigenvalues --   -4.78639  -4.78610  -3.52182  -2.19890  -2.19757
 Alpha  occ. eigenvalues --   -2.16557  -0.91871  -0.87591  -0.87467  -0.82501
 Alpha  occ. eigenvalues --   -0.82043  -0.81322  -0.80742  -0.78824  -0.78365
 Alpha  occ. eigenvalues --   -0.74188  -0.73565  -0.73045  -0.72495  -0.71872
 Alpha  occ. eigenvalues --   -0.71025  -0.67011  -0.66066  -0.64427  -0.63154
 Alpha  occ. eigenvalues --   -0.62511  -0.62118  -0.60195  -0.59762  -0.58253
 Alpha  occ. eigenvalues --   -0.56044  -0.53598  -0.51320  -0.50802  -0.50400
 Alpha  occ. eigenvalues --   -0.50078  -0.49142  -0.48303  -0.46960  -0.46551
 Alpha  occ. eigenvalues --   -0.46083  -0.45695  -0.44971  -0.44757  -0.44118
 Alpha  occ. eigenvalues --   -0.43468  -0.43176  -0.42900  -0.42675  -0.42075
 Alpha  occ. eigenvalues --   -0.42024  -0.41181  -0.40995  -0.38880  -0.38448
 Alpha  occ. eigenvalues --   -0.38148  -0.37803  -0.37555  -0.37072  -0.36851
 Alpha  occ. eigenvalues --   -0.36664  -0.36076  -0.35799  -0.35293  -0.35109
 Alpha  occ. eigenvalues --   -0.35070  -0.34763  -0.34574  -0.34535  -0.34255
 Alpha  occ. eigenvalues --   -0.34064  -0.33954  -0.33479  -0.33291  -0.30925
 Alpha  occ. eigenvalues --   -0.30660  -0.29747  -0.29182  -0.28846  -0.28595
 Alpha  occ. eigenvalues --   -0.26097  -0.25128  -0.24219  -0.23877  -0.23727
 Alpha virt. eigenvalues --   -0.06524  -0.06386  -0.06099  -0.00155   0.00393
 Alpha virt. eigenvalues --    0.02045   0.02410   0.02798   0.03561   0.03646
 Alpha virt. eigenvalues --    0.04727   0.05122   0.05246   0.05774   0.06096

 Mulliken charges:
               1
     1  Cl  -0.439238
     2  P    0.149453
     3  P    0.154860
     4  C   -0.031949
     5  C   -0.033447
     6  C   -0.055335
     7  H    0.132307
     8  C   -0.088772
     9  H    0.112216
    10  C   -0.122054
    11  H    0.089023
    12  C   -0.101325
    13  H    0.142925
    14  C   -0.202423
    15  H    0.121233
    16  H    0.105493
    17  C   -0.204810
    18  H    0.118665
    19  H    0.133767
    20  C   -0.152464
    21  H    0.111618
    22  H    0.156909
    23  C   -0.195118
    24  H    0.124570
    25  H    0.095906
    26  C   -0.198806
    27  H    0.126163
    28  H    0.108590
    29  C   -0.176632
    30  H    0.107080
    31  H    0.149119
    32  C   -0.189564
    33  H    0.105550
    34  H    0.165241
    35  C   -0.129404
    36  H    0.092502
    37  H    0.115290
    38  C   -0.394349
    39  H    0.119898
    40  H    0.176126
    41  H    0.138572
    42  C   -0.429362
    43  H    0.185505
    44  H    0.134534
    45  H    0.118545
    46  C   -0.380654
    47  H    0.119433
    48  H    0.120140
    49  H    0.128194
    50  C   -0.413327
    51  H    0.147581
    52  H    0.128400
    53  H    0.128718
    54  C   -0.162258
    55  H    0.132625
    56  C   -0.139772
    57  H    0.130771
    58  C   -0.113011
    59  H    0.131332
    60  C   -0.236675
    61  H    0.146685
    62  Cl  -0.447731
    63  Pd   0.132940
 Sum of Mulliken charges =  -0.00000

 Dipole moment (field-independent basis, Debye):
    X=              0.5781    Y=             12.0966    Z=              0.7370  Tot=             12.1328
 Quadrupole moment (field-independent basis, Debye-Ang):
   XX=           -190.8803   YY=           -227.4178   ZZ=           -204.3794
   XY=             -1.4993   XZ=              0.0061   YZ=             -2.1344

 Summary of Natural Population Analysis:

                                       Natural Population
                Natural  -----------------------------------------------
    Atom  No    Charge         Core      Valence    Rydberg      Total
 -----------------------------------------------------------------------
     Cl    1   -0.46037      9.99965     7.45171    0.00900    17.46037
      P    2    1.17450      9.99573     3.77804    0.05173    13.82550
      P    3    1.16397      9.99576     3.78597    0.05430    13.83603
      C    4   -0.34514      1.99896     4.30999    0.03619     6.34514
      C    5   -0.34379      1.99896     4.30994    0.03488     6.34379
      C    6   -0.51299      1.99938     4.48569    0.02791     6.51299
      H    7    0.27578      0.00000     0.72226    0.00196     0.72422
      C    8   -0.48148      1.99938     4.45657    0.02553     6.48148
      H    9    0.22954      0.00000     0.76853    0.00193     0.77046
      C   10   -0.47800      1.99939     4.45133    0.02729     6.47800
      H   11    0.22076      0.00000     0.77693    0.00232     0.77924
      C   12   -0.48818      1.99937     4.46292    0.02590     6.48818
      H   13    0.26598      0.00000     0.73246    0.00157     0.73402
      C   14   -0.41096      1.99941     4.39690    0.01466     6.41096
      H   15    0.22964      0.00000     0.76884    0.00152     0.77036
      H   16    0.19612      0.00000     0.80224    0.00164     0.80388
      C   17   -0.41581      1.99943     4.40155    0.01483     6.41581
      H   18    0.22380      0.00000     0.77477    0.00143     0.77620
      H   19    0.22408      0.00000     0.77429    0.00163     0.77592
      C   20   -0.42797      1.99941     4.41435    0.01420     6.42797
      H   21    0.22155      0.00000     0.77691    0.00153     0.77845
      H   22    0.25240      0.00000     0.74615    0.00146     0.74760
      C   23   -0.40587      1.99943     4.39188    0.01455     6.40587
      H   24    0.23145      0.00000     0.76712    0.00143     0.76855
      H   25    0.19577      0.00000     0.80257    0.00167     0.80423
      C   26   -0.41055      1.99942     4.39659    0.01454     6.41055
      H   27    0.20247      0.00000     0.79533    0.00220     0.79753
      H   28    0.21467      0.00000     0.78351    0.00182     0.78533
      C   29   -0.42296      1.99944     4.40772    0.01580     6.42296
      H   30    0.20992      0.00000     0.78836    0.00171     0.79008
      H   31    0.24928      0.00000     0.74916    0.00156     0.75072
      C   32   -0.41678      1.99941     4.40252    0.01485     6.41678
      H   33    0.21143      0.00000     0.78688    0.00169     0.78857
      H   34    0.24454      0.00000     0.75401    0.00145     0.75546
      C   35   -0.40687      1.99943     4.39177    0.01567     6.40687
      H   36    0.20035      0.00000     0.79758    0.00207     0.79965
      H   37    0.21839      0.00000     0.77986    0.00175     0.78161
      C   38   -0.61152      1.99948     4.60123    0.01082     6.61152
      H   39    0.21251      0.00000     0.78640    0.00109     0.78749
      H   40    0.22545      0.00000     0.77317    0.00138     0.77455
      H   41    0.21890      0.00000     0.78002    0.00108     0.78110
      C   42   -0.61275      1.99947     4.60209    0.01119     6.61275
      H   43    0.22402      0.00000     0.77463    0.00135     0.77598
      H   44    0.22470      0.00000     0.77444    0.00086     0.77530
      H   45    0.19823      0.00000     0.80055    0.00122     0.80177
      C   46   -0.61285      1.99949     4.60593    0.00742     6.61285
      H   47    0.20533      0.00000     0.79273    0.00194     0.79467
      H   48    0.20167      0.00000     0.79690    0.00143     0.79833
      H   49    0.22063      0.00000     0.77808    0.00129     0.77937
      C   50   -0.61749      1.99949     4.60616    0.01185     6.61749
      H   51    0.21830      0.00000     0.78058    0.00112     0.78170
      H   52    0.20791      0.00000     0.79026    0.00183     0.79209
      H   53    0.21762      0.00000     0.78146    0.00093     0.78238
      C   54   -0.20270      1.99910     4.18365    0.01994     6.20270
      H   55    0.22130      0.00000     0.77617    0.00253     0.77870
      C   56   -0.19454      1.99921     4.17779    0.01753     6.19454
      H   57    0.22690      0.00000     0.77189    0.00121     0.77310
      C   58   -0.19408      1.99921     4.17733    0.01755     6.19408
      H   59    0.22713      0.00000     0.77165    0.00122     0.77287
      C   60   -0.20490      1.99910     4.18537    0.02043     6.20490
      H   61    0.22164      0.00000     0.77564    0.00272     0.77836
     Cl   62   -0.45630      9.99965     7.44715    0.00950    17.45630
     Pd   63   -0.19376     35.98712    10.18058    0.02606    46.19376
 =======================================================================
   * Total *    0.00000    119.96328   157.41504    0.62167   278.00000

 Normal termination of Gaussian 09 at Sun Dec  5 10:33:50 2021.
