 Gaussian 09, Revision E.01,

 ----------------------------------------------------------------------
 # PBE1PBE/def2TZVP int=(grid=ultrafine) empiricaldispersion=GD3BJ nmr=
 giao
 ----------------------------------------------------------------------

 --------------------
 SS_Et_DuPhos_1 title
 --------------------
 Symbolic Z-matrix:
 Charge =  0 Multiplicity = 1

 SCF Done:  E(RPBE1PBE) =  -1541.81626706     A.U. after   21 cycles

      1  P    Isotropic =   314.3465   Anisotropy =    39.6338

      2  P    Isotropic =   312.0024   Anisotropy =    47.0844

      3  C    Isotropic =    25.4063   Anisotropy =   210.8394

      4  C    Isotropic =    31.7472   Anisotropy =   204.5774

      5  C    Isotropic =   135.1479   Anisotropy =    19.6114

      6  H    Isotropic =    29.3736   Anisotropy =     6.9815

      7  C    Isotropic =   131.3138   Anisotropy =    23.5847

      8  H    Isotropic =    29.0967   Anisotropy =     2.4663

      9  C    Isotropic =   131.6078   Anisotropy =    26.2639

     10  H    Isotropic =    28.9641   Anisotropy =     3.1278

     11  C    Isotropic =   137.4780   Anisotropy =    21.2788

     12  H    Isotropic =    29.2370   Anisotropy =     6.8846

     13  C    Isotropic =   148.1655   Anisotropy =    30.8231

     14  H    Isotropic =    29.7052   Anisotropy =    11.3961

     15  H    Isotropic =    28.9326   Anisotropy =     6.0166

     16  C    Isotropic =   147.8121   Anisotropy =    34.0620

     17  H    Isotropic =    28.8756   Anisotropy =     9.8881

     18  H    Isotropic =    30.1632   Anisotropy =     8.5835

     19  C    Isotropic =   147.9177   Anisotropy =    31.3320

     20  H    Isotropic =    29.2217   Anisotropy =    10.4173

     21  H    Isotropic =    29.9853   Anisotropy =     8.1116

     22  C    Isotropic =   144.3593   Anisotropy =    27.8207

     23  H    Isotropic =    29.4104   Anisotropy =    10.6771

     24  H    Isotropic =    29.7581   Anisotropy =     6.8142

     25  C    Isotropic =   159.6575   Anisotropy =    14.3178

     26  H    Isotropic =    29.7331   Anisotropy =    10.7581

     27  H    Isotropic =    29.1204   Anisotropy =     8.3851

     28  C    Isotropic =   150.5148   Anisotropy =    24.1343

     29  H    Isotropic =    29.6218   Anisotropy =     9.1732

     30  H    Isotropic =    30.1109   Anisotropy =     6.2166

     31  C    Isotropic =   152.9208   Anisotropy =    23.3253

     32  H    Isotropic =    29.5368   Anisotropy =     9.7407

     33  H    Isotropic =    29.9506   Anisotropy =     6.4817

     34  C    Isotropic =   157.0321   Anisotropy =    23.6365

     35  H    Isotropic =    30.2951   Anisotropy =     4.5793

     36  H    Isotropic =    29.9272   Anisotropy =    10.0879

     37  C    Isotropic =   173.1974   Anisotropy =     7.9481

     38  H    Isotropic =    31.0612   Anisotropy =     5.7957

     39  H    Isotropic =    32.0702   Anisotropy =    10.6870

     40  H    Isotropic =    31.1272   Anisotropy =    11.2835

     41  C    Isotropic =   166.4826   Anisotropy =    20.7941

     42  H    Isotropic =    30.8892   Anisotropy =     6.1688

     43  H    Isotropic =    30.3037   Anisotropy =    10.8529

     44  H    Isotropic =    29.7262   Anisotropy =     7.6679

     45  C    Isotropic =   167.5799   Anisotropy =    24.3528

     46  H    Isotropic =    29.8288   Anisotropy =    10.6548

     47  H    Isotropic =    30.8741   Anisotropy =     5.2277

     48  H    Isotropic =    30.3579   Anisotropy =    10.7391

     49  C    Isotropic =   167.6630   Anisotropy =    22.6136

     50  H    Isotropic =    30.9366   Anisotropy =    10.5469

     51  H    Isotropic =    30.8621   Anisotropy =     7.8285

     52  H    Isotropic =    31.2738   Anisotropy =     8.9963

     53  C    Isotropic =    42.0553   Anisotropy =   183.0226

     54  H    Isotropic =    23.2795   Anisotropy =    11.0171

     55  C    Isotropic =    51.7751   Anisotropy =   184.3509

     56  H    Isotropic =    23.9183   Anisotropy =     5.3507

     57  C    Isotropic =    52.2764   Anisotropy =   183.8422

     58  H    Isotropic =    23.8881   Anisotropy =     5.1772

     59  C    Isotropic =    42.6977   Anisotropy =   183.7323

     60  H    Isotropic =    23.4361   Anisotropy =    10.3138

 Normal termination of Gaussian 09 at Sun Dec  5 09:25:51 2021.
 Gaussian 09:  ES64L-G09RevE.01 30-Nov-2015

 ----------------------------------------------------------------------
 # PBE1PBE/def2TZVP int=(grid=ultrafine) empiricaldispersion=GD3BJ pop=
 nbo guess=read geom=check
 ----------------------------------------------------------------------

 --------------------
 SS_Et_DuPhos_1 title
 --------------------
 Structure from the checkpoint file:  "SS_Et_DuPhos_1_SPE_NoPd.chk"
 Charge =  0 Multiplicity = 1

                         Standard orientation:
 ---------------------------------------------------------------------
 Center     Atomic      Atomic             Coordinates (Angstroms)
 Number     Number       Type             X           Y           Z
 ---------------------------------------------------------------------
      1         15           0       -1.518442    0.097378   -0.662473
      2         15           0        1.635112    0.050104   -0.622977
      3          6           0       -0.666002   -0.002531    0.980921
      4          6           0        0.745163   -0.124322    0.984462
      5          6           0       -2.778155   -1.281463   -0.829400
      6          1           0       -3.001201   -1.168993   -1.911467
      7          6           0       -2.826172    1.451746   -0.457631
      8          1           0       -2.609088    1.907182    0.527896
      9          6           0        2.894175   -1.351252   -0.727203
     10          1           0        2.935379   -1.770378    0.299496
     11          6           0        2.920687    1.420925   -0.432861
     12          1           0        2.918398    1.872186   -1.443680
     13          6           0       -3.998552   -0.772174   -0.043873
     14          1           0       -4.891489   -1.369926   -0.303513
     15          1           0       -3.845690   -0.893494    1.044314
     16          6           0       -4.189703    0.705043   -0.423495
     17          1           0       -4.891827    1.222082    0.253650
     18          1           0       -4.622797    0.752354   -1.439191
     19          6           0        4.217621   -0.623066   -1.038773
     20          1           0        5.076956   -1.280497   -0.816279
     21          1           0        4.239518   -0.385560   -2.117583
     22          6           0        4.255383    0.673271   -0.222423
     23          1           0        5.101229    1.320764   -0.514893
     24          1           0        4.383318    0.443384    0.854569
     25          6           0       -2.364632   -2.743264   -0.602815
     26          1           0       -3.257645   -3.353667   -0.839849
     27          1           0       -1.611973   -3.015858   -1.361756
     28          6           0       -2.807017    2.545932   -1.539717
     29          1           0       -3.706003    3.172045   -1.374477
     30          1           0       -2.923257    2.062406   -2.525994
     31          6           0        2.555791   -2.468808   -1.720789
     32          1           0        3.413361   -3.169145   -1.733220
     33          1           0        2.482615   -2.025729   -2.730196
     34          6           0        2.646634    2.500445    0.621416
     35          1           0        2.621352    2.039936    1.627139
     36          1           0        3.522324    3.178192    0.620588
     37          6           0       -1.852766   -3.125070    0.791117
     38          1           0       -2.551340   -2.818022    1.588975
     39          1           0       -0.875278   -2.666167    1.009789
     40          1           0       -1.730222   -4.219249    0.861009
     41          6           0       -1.556175    3.422013   -1.552685
     42          1           0       -1.384479    3.911966   -0.577235
     43          1           0       -1.641963    4.208862   -2.320603
     44          1           0       -0.664550    2.817031   -1.801252
     45          6           0        1.266424   -3.218892   -1.388845
     46          1           0        0.404722   -2.535152   -1.489565
     47          1           0        1.272068   -3.621209   -0.359168
     48          1           0        1.102692   -4.058738   -2.084634
     49          6           0        1.370244    3.309707    0.389413
     50          1           0        1.285008    4.131709    1.120452
     51          1           0        1.351247    3.747455   -0.622804
     52          1           0        0.473418    2.676356    0.493428
     53          6           0       -1.357366    0.013863    2.208093
     54          1           0       -2.443603    0.140291    2.224517
     55          6           0       -0.667578   -0.140427    3.417047
     56          1           0       -1.219138   -0.132687    4.362431
     57          6           0        0.724037   -0.311845    3.415581
     58          1           0        1.263826   -0.442625    4.358722
     59          6           0        1.427408   -0.294240    2.204432
     60          1           0        2.517368   -0.402883    2.210315
 ---------------------------------------------------------------------

 SCF Done:  E(RPBE1PBE) =  -1541.81626706     A.U. after    2 cycles

 The electronic state is 1-A.
 Alpha  occ. eigenvalues --  -77.17646 -77.17437 -10.24191 -10.24115 -10.23865
 Alpha  occ. eigenvalues --  -10.23808 -10.23780 -10.23670 -10.22905 -10.22638
 Alpha  occ. eigenvalues --  -10.22633 -10.22538 -10.22068 -10.22051 -10.22039
 Alpha  occ. eigenvalues --  -10.22034 -10.21970 -10.21819 -10.21665 -10.21633
 Alpha  occ. eigenvalues --  -10.20511 -10.20497 -10.20407 -10.20188  -6.57316
 Alpha  occ. eigenvalues --   -6.57136  -4.70918  -4.70863  -4.70737  -4.70687
 Alpha  occ. eigenvalues --   -4.70432  -4.70246  -0.88391  -0.84937  -0.84811
 Alpha  occ. eigenvalues --   -0.80419  -0.80234  -0.77731  -0.77370  -0.77043
 Alpha  occ. eigenvalues --   -0.76789  -0.71151  -0.70869  -0.68616  -0.67926
 Alpha  occ. eigenvalues --   -0.64128  -0.63877  -0.61859  -0.61279  -0.60698
 Alpha  occ. eigenvalues --   -0.60020  -0.57745  -0.57081  -0.54850  -0.52083
 Alpha  occ. eigenvalues --   -0.50181  -0.48515  -0.48215  -0.47567  -0.47291
 Alpha  occ. eigenvalues --   -0.46082  -0.45737  -0.45004  -0.44941  -0.44603
 Alpha  occ. eigenvalues --   -0.44276  -0.43278  -0.42409  -0.41669  -0.41404
 Alpha  occ. eigenvalues --   -0.41138  -0.40653  -0.40443  -0.39637  -0.39249
 Alpha  occ. eigenvalues --   -0.38744  -0.38487  -0.36580  -0.36373  -0.36302
 Alpha  occ. eigenvalues --   -0.35514  -0.35379  -0.34792  -0.34462  -0.34183
 Alpha  occ. eigenvalues --   -0.33465  -0.33170  -0.32847  -0.32754  -0.32551
 Alpha  occ. eigenvalues --   -0.32249  -0.31557  -0.30984  -0.30563  -0.29796
 Alpha  occ. eigenvalues --   -0.26672  -0.25843  -0.23665  -0.17618
 Alpha virt. eigenvalues --   -0.03093  -0.02981   0.03642   0.03882   0.04046
 Alpha virt. eigenvalues --    0.04467   0.05046   0.05385   0.05759   0.06765
 Alpha virt. eigenvalues --    0.07361   0.07487   0.07741   0.08169   0.08731

 Mulliken charges:
               1
     1  P   -0.018737
     2  P   -0.006467
     3  C    0.006511
     4  C    0.021358
     5  C   -0.045843
     6  H    0.092836
     7  C   -0.102538
     8  H    0.094535
     9  C   -0.140736
    10  H    0.083149
    11  C   -0.124093
    12  H    0.091782
    13  C   -0.194551
    14  H    0.093934
    15  H    0.097669
    16  C   -0.198473
    17  H    0.109149
    18  H    0.102642
    19  C   -0.142094
    20  H    0.106848
    21  H    0.098966
    22  C   -0.167207
    23  H    0.100955
    24  H    0.090168
    25  C   -0.198241
    26  H    0.096777
    27  H    0.126510
    28  C   -0.152562
    29  H    0.101896
    30  H    0.095950
    31  C   -0.136072
    32  H    0.095662
    33  H    0.097766
    34  C   -0.120698
    35  H    0.098612
    36  H    0.095734
    37  C   -0.386962
    38  H    0.114661
    39  H    0.137608
    40  H    0.125062
    41  C   -0.416778
    42  H    0.118732
    43  H    0.123615
    44  H    0.149034
    45  C   -0.384022
    46  H    0.116675
    47  H    0.113096
    48  H    0.122655
    49  C   -0.402634
    50  H    0.119811
    51  H    0.123510
    52  H    0.131829
    53  C   -0.159567
    54  H    0.134716
    55  C   -0.149554
    56  H    0.117194
    57  C   -0.120753
    58  H    0.117979
    59  C   -0.231709
    60  H    0.134701
 Sum of Mulliken charges =  -0.00000

 Dipole moment (field-independent basis, Debye):
    X=             -0.0172    Y=             -0.2505    Z=              1.6743  Tot=              1.6930
 Quadrupole moment (field-independent basis, Debye-Ang):
   XX=           -156.9766   YY=           -166.5097   ZZ=           -161.7241
   XY=             -0.2694   XZ=              0.3029   YZ=              0.3971

 Summary of Natural Population Analysis:

                                       Natural Population
                Natural  -----------------------------------------------
    Atom  No    Charge         Core      Valence    Rydberg      Total
 -----------------------------------------------------------------------
      P    1    0.75633      9.99825     4.21765    0.02778    14.24367
      P    2    0.74984      9.99828     4.22436    0.02753    14.25016
      C    3   -0.31338      1.99897     4.28150    0.03291     6.31338
      C    4   -0.31850      1.99898     4.28673    0.03279     6.31850
      C    5   -0.47036      1.99941     4.44433    0.02662     6.47036
      H    6    0.22967      0.00000     0.76890    0.00143     0.77033
      C    7   -0.47674      1.99943     4.45367    0.02364     6.47674
      H    8    0.22030      0.00000     0.77736    0.00234     0.77970
      C    9   -0.47025      1.99943     4.44662    0.02420     6.47025
      H   10    0.20911      0.00000     0.78796    0.00292     0.79089
      C   11   -0.46750      1.99942     4.44282    0.02527     6.46750
      H   12    0.22511      0.00000     0.77345    0.00144     0.77489
      C   13   -0.41866      1.99942     4.40441    0.01484     6.41866
      H   14    0.21149      0.00000     0.78655    0.00196     0.78851
      H   15    0.19948      0.00000     0.79871    0.00182     0.80052
      C   16   -0.41386      1.99944     4.39963    0.01479     6.41386
      H   17    0.21726      0.00000     0.78123    0.00151     0.78274
      H   18    0.20399      0.00000     0.79406    0.00195     0.79601
      C   19   -0.41198      1.99943     4.39827    0.01429     6.41198
      H   20    0.21785      0.00000     0.78056    0.00159     0.78215
      H   21    0.20387      0.00000     0.79419    0.00194     0.79613
      C   22   -0.40475      1.99943     4.39080    0.01452     6.40475
      H   23    0.21298      0.00000     0.78514    0.00187     0.78702
      H   24    0.19739      0.00000     0.80092    0.00169     0.80261
      C   25   -0.40433      1.99941     4.38925    0.01567     6.40433
      H   26    0.20063      0.00000     0.79714    0.00223     0.79937
      H   27    0.21537      0.00000     0.78299    0.00164     0.78463
      C   28   -0.39839      1.99944     4.38339    0.01556     6.39839
      H   29    0.20023      0.00000     0.79802    0.00175     0.79977
      H   30    0.20341      0.00000     0.79469    0.00191     0.79659
      C   31   -0.40051      1.99943     4.38574    0.01534     6.40051
      H   32    0.19975      0.00000     0.79842    0.00183     0.80025
      H   33    0.20672      0.00000     0.79125    0.00202     0.79328
      C   34   -0.40503      1.99943     4.39041    0.01519     6.40503
      H   35    0.20568      0.00000     0.79216    0.00216     0.79432
      H   36    0.20161      0.00000     0.79624    0.00215     0.79839
      C   37   -0.62138      1.99949     4.60998    0.01192     6.62138
      H   38    0.20511      0.00000     0.79351    0.00138     0.79489
      H   39    0.21680      0.00000     0.78138    0.00183     0.78320
      H   40    0.21338      0.00000     0.78567    0.00095     0.78662
      C   41   -0.62105      1.99949     4.61446    0.00710     6.62105
      H   42    0.20425      0.00000     0.79429    0.00146     0.79575
      H   43    0.21125      0.00000     0.78753    0.00122     0.78875
      H   44    0.22281      0.00000     0.77563    0.00156     0.77719
      C   45   -0.61919      1.99949     4.61252    0.00718     6.61919
      H   46    0.21582      0.00000     0.78233    0.00185     0.78418
      H   47    0.20552      0.00000     0.79301    0.00147     0.79448
      H   48    0.21249      0.00000     0.78632    0.00119     0.78751
      C   49   -0.61631      1.99949     4.60522    0.01160     6.61631
      H   50    0.21231      0.00000     0.78674    0.00096     0.78769
      H   51    0.20742      0.00000     0.79119    0.00138     0.79258
      H   52    0.21478      0.00000     0.78385    0.00137     0.78522
      C   53   -0.21229      1.99909     4.19348    0.01971     6.21229
      H   54    0.21446      0.00000     0.78291    0.00262     0.78554
      C   55   -0.20747      1.99921     4.19033    0.01794     6.20747
      H   56    0.21835      0.00000     0.78035    0.00130     0.78165
      C   57   -0.20871      1.99921     4.19153    0.01797     6.20871
      H   58    0.21864      0.00000     0.78006    0.00130     0.78136
      C   59   -0.21607      1.99910     4.19668    0.02029     6.21607
      H   60    0.21525      0.00000     0.78178    0.00297     0.78475
 =======================================================================
   * Total *    0.00000     63.98214   133.50024    0.51762   198.00000

 Normal termination of Gaussian 09 at Sun Dec  5 09:29:07 2021.
