 Gaussian 09, Revision E.01,

 ----------------------------------------------------------------------
 # PBE1PBE gen pseudo=read int=(grid=ultrafine) empiricaldispersion=GD3
 BJ nmr=giao
 ----------------------------------------------------------------------

 --------------------
 SS_Et_DuPhos_4 title
 --------------------
 Symbolic Z-matrix:
 Charge =  0 Multiplicity = 1

 SCF Done:  E(RPBE1PBE) =  -2590.03562710     A.U. after   17 cycles

      1  Cl   Isotropic =   940.7765   Anisotropy =   483.9056

      2  P    Isotropic =   197.1889   Anisotropy =   144.8211

      3  P    Isotropic =   197.1870   Anisotropy =   144.8136

      4  C    Isotropic =    32.2824   Anisotropy =   178.5008

      5  C    Isotropic =    32.2822   Anisotropy =   178.5021

      6  C    Isotropic =   133.9919   Anisotropy =    24.8392

      7  H    Isotropic =    26.8539   Anisotropy =     6.4205

      8  C    Isotropic =   124.3812   Anisotropy =    24.4867

      9  H    Isotropic =    28.7180   Anisotropy =     5.7529

     10  C    Isotropic =   124.3834   Anisotropy =    24.4840

     11  H    Isotropic =    28.7179   Anisotropy =     5.7530

     12  C    Isotropic =   133.9925   Anisotropy =    24.8394

     13  H    Isotropic =    26.8546   Anisotropy =     6.4183

     14  C    Isotropic =   145.5797   Anisotropy =    21.8789

     15  H    Isotropic =    28.9922   Anisotropy =    11.0100

     16  H    Isotropic =    29.8402   Anisotropy =     9.4316

     17  C    Isotropic =   151.1973   Anisotropy =    26.2399

     18  H    Isotropic =    29.7089   Anisotropy =    12.2969

     19  H    Isotropic =    28.0872   Anisotropy =     4.9900

     20  C    Isotropic =   151.1983   Anisotropy =    26.2413

     21  H    Isotropic =    29.7088   Anisotropy =    12.2968

     22  H    Isotropic =    28.0875   Anisotropy =     4.9902

     23  C    Isotropic =   145.5802   Anisotropy =    21.8808

     24  H    Isotropic =    28.9922   Anisotropy =    11.0099

     25  H    Isotropic =    29.8401   Anisotropy =     9.4315

     26  C    Isotropic =   157.2558   Anisotropy =    23.6858

     27  H    Isotropic =    30.0006   Anisotropy =     6.3091

     28  H    Isotropic =    29.6023   Anisotropy =    11.2439

     29  C    Isotropic =   159.7160   Anisotropy =    12.1745

     30  H    Isotropic =    29.7817   Anisotropy =     6.2899

     31  H    Isotropic =    29.6715   Anisotropy =    11.7322

     32  C    Isotropic =   159.7158   Anisotropy =    12.1728

     33  H    Isotropic =    29.7815   Anisotropy =     6.2898

     34  H    Isotropic =    29.6715   Anisotropy =    11.7321

     35  C    Isotropic =   157.2554   Anisotropy =    23.6862

     36  H    Isotropic =    30.0007   Anisotropy =     6.3093

     37  H    Isotropic =    29.6022   Anisotropy =    11.2440

     38  C    Isotropic =   169.8502   Anisotropy =    21.1489

     39  H    Isotropic =    30.8399   Anisotropy =    12.2878

     40  H    Isotropic =    31.2360   Anisotropy =     8.7914

     41  H    Isotropic =    30.3474   Anisotropy =     6.1113

     42  C    Isotropic =   169.5699   Anisotropy =    11.1729

     43  H    Isotropic =    29.9725   Anisotropy =     6.1152

     44  H    Isotropic =    30.4695   Anisotropy =    11.5512

     45  H    Isotropic =    28.8436   Anisotropy =    13.1295

     46  C    Isotropic =   169.5763   Anisotropy =    11.1630

     47  H    Isotropic =    29.9730   Anisotropy =     6.1176

     48  H    Isotropic =    28.8438   Anisotropy =    13.1275

     49  H    Isotropic =    30.4697   Anisotropy =    11.5517

     50  C    Isotropic =   169.8498   Anisotropy =    21.1481

     51  H    Isotropic =    30.3474   Anisotropy =     6.1108

     52  H    Isotropic =    31.2360   Anisotropy =     8.7917

     53  H    Isotropic =    30.8399   Anisotropy =    12.2876

     54  C    Isotropic =    45.6584   Anisotropy =   184.6200

     55  H    Isotropic =    23.4933   Anisotropy =    11.4281

     56  C    Isotropic =    49.2410   Anisotropy =   190.1452

     57  H    Isotropic =    23.5752   Anisotropy =     5.5500

     58  C    Isotropic =    49.2412   Anisotropy =   190.1445

     59  H    Isotropic =    23.5753   Anisotropy =     5.5499

     60  C    Isotropic =    45.6598   Anisotropy =   184.6210

     61  H    Isotropic =    23.4933   Anisotropy =    11.4281

     62  Cl   Isotropic =   940.8216   Anisotropy =   483.9058

     63  Pd   Isotropic =  -129.5748   Anisotropy =   208.2528

 Normal termination of Gaussian 09 at Sun Dec  5 10:23:27 2021.
 Gaussian 09:  ES64L-G09RevE.01 30-Nov-2015

 ----------------------------------------------------------------------
 # PBE1PBE gen pseudo=read int=(grid=ultrafine) empiricaldispersion=GD3
 BJ pop=nbo guess=read geom=check
 ----------------------------------------------------------------------

 --------------------
 SS_Et_DuPhos_4 title
 --------------------
 Structure from the checkpoint file:  "SS_Et_DuPhos_4_SPE.chk"
 Charge =  0 Multiplicity = 1

                         Standard orientation:
 ---------------------------------------------------------------------
 Center     Atomic      Atomic             Coordinates (Angstroms)
 Number     Number       Type             X           Y           Z
 ---------------------------------------------------------------------
      1         17           0        1.754385    2.920905    0.325629
      2         15           0        1.561583   -0.315418    0.017174
      3         15           0       -1.561580   -0.315415   -0.017213
      4          6           0        0.707183   -1.952840    0.021378
      5          6           0       -0.707174   -1.952839   -0.021361
      6          6           0        2.862550   -0.208275    1.377152
      7          1           0        2.743004    0.844637    1.697587
      8          6           0        2.813361   -0.435875   -1.382472
      9          1           0        3.022884   -1.524960   -1.432789
     10          6           0       -2.813386   -0.435895    1.382401
     11          1           0       -3.022875   -1.524987    1.432698
     12          6           0       -2.862513   -0.208307   -1.377230
     13          1           0       -2.742962    0.844599   -1.697676
     14          6           0        4.216198   -0.340498    0.642464
     15          1           0        5.006088    0.177005    1.214775
     16          1           0        4.504205   -1.409381    0.579599
     17          6           0        4.056929    0.239350   -0.772487
     18          1           0        4.943691    0.046251   -1.402738
     19          1           0        3.903830    1.331563   -0.714419
     20          6           0       -4.056970    0.239283    0.772394
     21          1           0       -4.943740    0.046127    1.402616
     22          1           0       -3.903918    1.331503    0.714359
     23          6           0       -4.216183   -0.340531   -0.642579
     24          1           0       -5.006052    0.176981   -1.214911
     25          1           0       -4.504193   -1.409415   -0.579742
     26          6           0        2.675318   -1.133407    2.583962
     27          1           0        2.737469   -2.192030    2.267298
     28          1           0        3.536350   -0.967074    3.259861
     29          6           0        2.385802    0.008459   -2.791301
     30          1           0        1.599679   -0.680185   -3.152211
     31          1           0        3.260064   -0.169499   -3.448436
     32          6           0       -2.385890    0.008430    2.791256
     33          1           0       -1.599567   -0.680032    3.152083
     34          1           0       -3.260085   -0.169832    3.448396
     35          6           0       -2.675234   -1.133459   -2.584019
     36          1           0       -2.737470   -2.192079   -2.267362
     37          1           0       -3.536197   -0.967081   -3.259995
     38          6           0        1.368396   -0.892507    3.345804
     39          1           0        1.319938   -1.508101    4.259889
     40          1           0        0.495742   -1.151743    2.721960
     41          1           0        1.264761    0.167161    3.635938
     42          6           0        1.911120    1.455116   -2.953063
     43          1           0        2.642601    2.181600   -2.564722
     44          1           0        1.736289    1.675323   -4.020287
     45          1           0        0.968239    1.637034   -2.407204
     46          6           0       -1.911634    1.455213    2.953151
     47          1           0       -2.643348    2.181518    2.564914
     48          1           0       -0.968829    1.637471    2.407270
     49          1           0       -1.736820    1.675362    4.020389
     50          6           0       -1.368230   -0.892633   -3.345738
     51          1           0       -1.264516    0.167028   -3.635871
     52          1           0       -0.495652   -1.151901   -2.721800
     53          1           0       -1.319708   -1.508240   -4.259811
     54          6           0        1.402225   -3.176945    0.042406
     55          1           0        2.497114   -3.185441    0.072554
     56          6           0        0.700947   -4.389620    0.022337
     57          1           0        1.249455   -5.336604    0.041548
     58          6           0       -0.700942   -4.389620   -0.022146
     59          1           0       -1.249453   -5.336603   -0.041279
     60          6           0       -1.402218   -3.176945   -0.042284
     61          1           0       -2.497108   -3.185443   -0.072399
     62         17           0       -1.754244    2.921047   -0.325584
     63         46           0        0.000016    1.308801   -0.000009
 ---------------------------------------------------------------------

 SCF Done:  E(RPBE1PBE) =  -2590.03562710     A.U. after    2 cycles

 The electronic state is 1-A.
 Alpha  occ. eigenvalues -- -101.61007-101.61006 -77.25998 -77.25998 -10.28070
 Alpha  occ. eigenvalues --  -10.28019 -10.27331 -10.27330 -10.27076 -10.27020
 Alpha  occ. eigenvalues --  -10.25912 -10.25912 -10.25246 -10.25245 -10.24099
 Alpha  occ. eigenvalues --  -10.24099 -10.24095 -10.24095 -10.23381 -10.23381
 Alpha  occ. eigenvalues --  -10.23327 -10.23326 -10.22313 -10.22313 -10.20168
 Alpha  occ. eigenvalues --  -10.20168  -9.43524  -9.43524  -7.16680  -7.16679
 Alpha  occ. eigenvalues --   -7.16262  -7.16262  -7.16231  -7.16230  -6.65291
 Alpha  occ. eigenvalues --   -6.65291  -4.78907  -4.78907  -4.78794  -4.78794
 Alpha  occ. eigenvalues --   -4.78639  -4.78639  -3.52120  -2.19837  -2.19690
 Alpha  occ. eigenvalues --   -2.16500  -0.91996  -0.87590  -0.87498  -0.82350
 Alpha  occ. eigenvalues --   -0.82234  -0.81448  -0.80881  -0.78532  -0.78357
 Alpha  occ. eigenvalues --   -0.73967  -0.73355  -0.72577  -0.72403  -0.71884
 Alpha  occ. eigenvalues --   -0.70985  -0.67238  -0.66382  -0.64300  -0.63478
 Alpha  occ. eigenvalues --   -0.63184  -0.62981  -0.59783  -0.58906  -0.57629
 Alpha  occ. eigenvalues --   -0.55438  -0.53171  -0.51340  -0.50826  -0.50010
 Alpha  occ. eigenvalues --   -0.49992  -0.48999  -0.48332  -0.47628  -0.47038
 Alpha  occ. eigenvalues --   -0.46327  -0.45818  -0.45351  -0.44899  -0.44554
 Alpha  occ. eigenvalues --   -0.44037  -0.43145  -0.42935  -0.42525  -0.41571
 Alpha  occ. eigenvalues --   -0.41257  -0.40043  -0.39844  -0.39101  -0.38380
 Alpha  occ. eigenvalues --   -0.38321  -0.38208  -0.37625  -0.37290  -0.37175
 Alpha  occ. eigenvalues --   -0.36743  -0.36051  -0.35873  -0.35475  -0.35374
 Alpha  occ. eigenvalues --   -0.35068  -0.34672  -0.34573  -0.34461  -0.34232
 Alpha  occ. eigenvalues --   -0.33741  -0.33632  -0.33612  -0.33111  -0.30855
 Alpha  occ. eigenvalues --   -0.30826  -0.29711  -0.29123  -0.28384  -0.28241
 Alpha  occ. eigenvalues --   -0.25694  -0.24843  -0.24011  -0.23859  -0.23473
 Alpha virt. eigenvalues --   -0.06549  -0.06370  -0.06180  -0.00011   0.00104
 Alpha virt. eigenvalues --    0.01888   0.02447   0.02555   0.03651   0.03751
 Alpha virt. eigenvalues --    0.04788   0.05321   0.05337   0.05734   0.06010

 Mulliken charges:
               1
     1  Cl  -0.431063
     2  P    0.119537
     3  P    0.119573
     4  C   -0.000010
     5  C   -0.000081
     6  C   -0.111278
     7  H    0.151367
     8  C   -0.069239
     9  H    0.099859
    10  C   -0.069238
    11  H    0.099852
    12  C   -0.111273
    13  H    0.151366
    14  C   -0.183309
    15  H    0.124440
    16  H    0.093477
    17  C   -0.194674
    18  H    0.113442
    19  H    0.151679
    20  C   -0.194674
    21  H    0.113445
    22  H    0.151677
    23  C   -0.183321
    24  H    0.124442
    25  H    0.093477
    26  C   -0.137555
    27  H    0.088721
    28  H    0.114771
    29  C   -0.178357
    30  H    0.119219
    31  H    0.104724
    32  C   -0.178351
    33  H    0.119217
    34  H    0.104720
    35  C   -0.137554
    36  H    0.088726
    37  H    0.114772
    38  C   -0.381480
    39  H    0.130152
    40  H    0.098834
    41  H    0.148058
    42  C   -0.412934
    43  H    0.142238
    44  H    0.123315
    45  H    0.187668
    46  C   -0.412921
    47  H    0.142213
    48  H    0.187649
    49  H    0.123314
    50  C   -0.381491
    51  H    0.148061
    52  H    0.098842
    53  H    0.130152
    54  C   -0.238923
    55  H    0.147579
    56  C   -0.117359
    57  H    0.131731
    58  C   -0.117372
    59  H    0.131731
    60  C   -0.238906
    61  H    0.147575
    62  Cl  -0.431066
    63  Pd   0.130820
 Sum of Mulliken charges =  -0.00000

 Dipole moment (field-independent basis, Debye):
    X=             -0.0001    Y=            -12.3115    Z=             -0.0001  Tot=             12.3115
 Quadrupole moment (field-independent basis, Debye-Ang):
   XX=           -191.2212   YY=           -226.5839   ZZ=           -203.9979
   XY=              0.0004   XZ=             -0.9810   YZ=             -0.0006

 Summary of Natural Population Analysis:

                                       Natural Population
                Natural  -----------------------------------------------
    Atom  No    Charge         Core      Valence    Rydberg      Total
 -----------------------------------------------------------------------
     Cl    1   -0.46340      9.99965     7.45489    0.00886    17.46340
      P    2    1.16839      9.99561     3.78214    0.05386    13.83161
      P    3    1.16837      9.99561     3.78216    0.05385    13.83163
      C    4   -0.34402      1.99896     4.31007    0.03499     6.34402
      C    5   -0.34401      1.99896     4.31006    0.03499     6.34401
      C    6   -0.50099      1.99937     4.47516    0.02647     6.50099
      H    7    0.27989      0.00000     0.71837    0.00173     0.72011
      C    8   -0.47293      1.99937     4.44655    0.02701     6.47293
      H    9    0.22370      0.00000     0.77428    0.00202     0.77630
      C   10   -0.47293      1.99937     4.44655    0.02701     6.47293
      H   11    0.22370      0.00000     0.77428    0.00202     0.77630
      C   12   -0.50099      1.99937     4.47515    0.02647     6.50099
      H   13    0.27989      0.00000     0.71838    0.00173     0.72011
      C   14   -0.40417      1.99943     4.39029    0.01445     6.40417
      H   15    0.23133      0.00000     0.76719    0.00148     0.76867
      H   16    0.19458      0.00000     0.80371    0.00170     0.80542
      C   17   -0.43220      1.99941     4.41820    0.01459     6.43220
      H   18    0.22235      0.00000     0.77602    0.00164     0.77765
      H   19    0.24724      0.00000     0.75125    0.00151     0.75276
      C   20   -0.43220      1.99941     4.41820    0.01459     6.43220
      H   21    0.22235      0.00000     0.77602    0.00164     0.77765
      H   22    0.24723      0.00000     0.75126    0.00151     0.75277
      C   23   -0.40417      1.99943     4.39029    0.01445     6.40417
      H   24    0.23133      0.00000     0.76719    0.00148     0.76867
      H   25    0.19458      0.00000     0.80371    0.00170     0.80542
      C   26   -0.40511      1.99942     4.39053    0.01516     6.40511
      H   27    0.19847      0.00000     0.79950    0.00203     0.80153
      H   28    0.21890      0.00000     0.77935    0.00175     0.78110
      C   29   -0.40713      1.99942     4.39296    0.01476     6.40713
      H   30    0.20633      0.00000     0.79204    0.00163     0.79367
      H   31    0.21275      0.00000     0.78539    0.00186     0.78725
      C   32   -0.40713      1.99942     4.39296    0.01476     6.40713
      H   33    0.20633      0.00000     0.79204    0.00163     0.79367
      H   34    0.21275      0.00000     0.78540    0.00186     0.78725
      C   35   -0.40511      1.99942     4.39053    0.01516     6.40511
      H   36    0.19848      0.00000     0.79950    0.00203     0.80152
      H   37    0.21890      0.00000     0.77935    0.00175     0.78110
      C   38   -0.61708      1.99949     4.60612    0.01147     6.61708
      H   39    0.21784      0.00000     0.78123    0.00093     0.78216
      H   40    0.20388      0.00000     0.79417    0.00195     0.79612
      H   41    0.22175      0.00000     0.77711    0.00115     0.77825
      C   42   -0.61274      1.99947     4.60166    0.01161     6.61274
      H   43    0.22584      0.00000     0.77295    0.00121     0.77416
      H   44    0.21429      0.00000     0.78476    0.00095     0.78571
      H   45    0.22995      0.00000     0.76866    0.00139     0.77005
      C   46   -0.61274      1.99947     4.60167    0.01161     6.61274
      H   47    0.22582      0.00000     0.77297    0.00121     0.77418
      H   48    0.22996      0.00000     0.76865    0.00139     0.77004
      H   49    0.21429      0.00000     0.78476    0.00095     0.78571
      C   50   -0.61708      1.99949     4.60613    0.01147     6.61708
      H   51    0.22175      0.00000     0.77711    0.00115     0.77825
      H   52    0.20388      0.00000     0.79417    0.00195     0.79612
      H   53    0.21784      0.00000     0.78123    0.00093     0.78216
      C   54   -0.20457      1.99910     4.18511    0.02036     6.20457
      H   55    0.22218      0.00000     0.77500    0.00282     0.77782
      C   56   -0.19420      1.99921     4.17751    0.01748     6.19420
      H   57    0.22736      0.00000     0.77143    0.00121     0.77264
      C   58   -0.19420      1.99921     4.17751    0.01748     6.19420
      H   59    0.22736      0.00000     0.77143    0.00121     0.77264
      C   60   -0.20457      1.99910     4.18512    0.02036     6.20457
      H   61    0.22218      0.00000     0.77500    0.00282     0.77782
     Cl   62   -0.46341      9.99965     7.45490    0.00886    17.46341
     Pd   63   -0.21694     35.98701    10.20419    0.02575    46.21694
 =======================================================================
   * Total *   -0.00000    119.96282   157.41142    0.62575   278.00000

 Normal termination of Gaussian 09 at Sun Dec  5 10:28:05 2021.
