 Gaussian 09, Revision E.01,

 ----------------------------------------------------------------------
 # PBE1PBE/def2TZVP int=(grid=ultrafine) empiricaldispersion=GD3BJ nmr=
 giao
 ----------------------------------------------------------------------

 --------------------
 SS_Et_DuPhos_5 title
 --------------------
 Symbolic Z-matrix:
 Charge =  0 Multiplicity = 1

 SCF Done:  E(RPBE1PBE) =  -1541.81642261     A.U. after   25 cycles

      1  P    Isotropic =   313.7372   Anisotropy =    69.2206

      2  P    Isotropic =   303.8823   Anisotropy =    63.2804

      3  C    Isotropic =    27.8968   Anisotropy =   205.0227

      4  C    Isotropic =    29.8867   Anisotropy =   207.7428

      5  C    Isotropic =   133.0899   Anisotropy =    24.8941

      6  H    Isotropic =    29.7341   Anisotropy =     6.4180

      7  C    Isotropic =   132.0996   Anisotropy =    23.6634

      8  H    Isotropic =    29.1965   Anisotropy =     2.5783

      9  C    Isotropic =   132.7339   Anisotropy =    32.7378

     10  H    Isotropic =    29.0999   Anisotropy =     2.8689

     11  C    Isotropic =   138.8955   Anisotropy =    21.9589

     12  H    Isotropic =    29.0026   Anisotropy =     6.4894

     13  C    Isotropic =   144.9634   Anisotropy =    30.9746

     14  H    Isotropic =    29.4777   Anisotropy =    10.9045

     15  H    Isotropic =    29.2029   Anisotropy =     6.8087

     16  C    Isotropic =   147.6735   Anisotropy =    34.0569

     17  H    Isotropic =    28.9463   Anisotropy =    10.0986

     18  H    Isotropic =    30.1805   Anisotropy =     8.4987

     19  C    Isotropic =   148.7131   Anisotropy =    31.4219

     20  H    Isotropic =    29.4276   Anisotropy =    10.5383

     21  H    Isotropic =    29.8597   Anisotropy =     7.9428

     22  C    Isotropic =   144.5764   Anisotropy =    29.1905

     23  H    Isotropic =    29.3390   Anisotropy =    10.3930

     24  H    Isotropic =    29.8701   Anisotropy =     7.1816

     25  C    Isotropic =   160.9270   Anisotropy =    22.6484

     26  H    Isotropic =    30.2718   Anisotropy =     4.3742

     27  H    Isotropic =    29.9316   Anisotropy =     9.2926

     28  C    Isotropic =   150.7603   Anisotropy =    23.6230

     29  H    Isotropic =    29.6552   Anisotropy =     9.2918

     30  H    Isotropic =    30.1458   Anisotropy =     6.2507

     31  C    Isotropic =   155.0326   Anisotropy =    26.2079

     32  H    Isotropic =    29.6801   Anisotropy =     9.5266

     33  H    Isotropic =    29.6467   Anisotropy =     5.2246

     34  C    Isotropic =   156.3017   Anisotropy =    25.5606

     35  H    Isotropic =    30.0837   Anisotropy =     4.7084

     36  H    Isotropic =    29.9231   Anisotropy =     9.8226

     37  C    Isotropic =   166.5985   Anisotropy =    24.2019

     38  H    Isotropic =    30.5064   Anisotropy =    10.0087

     39  H    Isotropic =    30.0076   Anisotropy =     7.4019

     40  H    Isotropic =    30.5426   Anisotropy =     9.5507

     41  C    Isotropic =   166.2944   Anisotropy =    21.0356

     42  H    Isotropic =    29.7335   Anisotropy =     7.6420

     43  H    Isotropic =    30.2971   Anisotropy =    10.7899

     44  H    Isotropic =    30.9048   Anisotropy =     6.3031

     45  C    Isotropic =   166.5582   Anisotropy =    20.6827

     46  H    Isotropic =    31.0065   Anisotropy =     8.6027

     47  H    Isotropic =    30.9654   Anisotropy =     7.9731

     48  H    Isotropic =    30.5916   Anisotropy =    10.2826

     49  C    Isotropic =   167.6325   Anisotropy =    21.9795

     50  H    Isotropic =    30.8850   Anisotropy =     8.0232

     51  H    Isotropic =    31.3613   Anisotropy =     8.8235

     52  H    Isotropic =    30.9386   Anisotropy =    10.6114

     53  C    Isotropic =    42.4595   Anisotropy =   180.7275

     54  H    Isotropic =    23.2722   Anisotropy =    11.6273

     55  C    Isotropic =    51.5592   Anisotropy =   184.1330

     56  H    Isotropic =    23.8766   Anisotropy =     5.4443

     57  C    Isotropic =    52.1686   Anisotropy =   183.8626

     58  H    Isotropic =    23.8592   Anisotropy =     5.2937

     59  C    Isotropic =    43.0414   Anisotropy =   184.5310

     60  H    Isotropic =    23.3815   Anisotropy =    10.2050

 Normal termination of Gaussian 09 at Tue Nov 30 21:09:55 2021.
 Gaussian 09:  ES64L-G09RevE.01 30-Nov-2015

 ----------------------------------------------------------------------
 # PBE1PBE/def2TZVP int=(grid=ultrafine) empiricaldispersion=GD3BJ pop=
 nbo guess=read geom=check
 ----------------------------------------------------------------------

 --------------------
 SS_Et_DuPhos_5 title
 --------------------
 Structure from the checkpoint file:  "SS_Et_DuPhos_5_SPE_NoPd.chk"
 Charge =  0 Multiplicity = 1

                         Standard orientation:
 ---------------------------------------------------------------------
 Center     Atomic      Atomic             Coordinates (Angstroms)
 Number     Number       Type             X           Y           Z
 ---------------------------------------------------------------------
      1         15           0        1.581480   -0.012371   -0.546320
      2         15           0       -1.572518   -0.035701   -0.618142
      3          6           0        0.668794   -0.067007    1.069374
      4          6           0       -0.747677   -0.044300    1.031669
      5          6           0        2.818536    1.388823   -0.501275
      6          1           0        3.092468    1.442227   -1.575532
      7          6           0        2.893486   -1.371462   -0.422763
      8          1           0        2.644507   -1.923502    0.504134
      9          6           0       -2.909880    1.284098   -0.552420
     10          1           0       -3.151892    1.387879    0.526558
     11          6           0       -2.786688   -1.482991   -0.747762
     12          1           0       -2.604014   -1.844586   -1.776922
     13          6           0        4.020711    0.811363    0.263663
     14          1           0        4.912785    1.441695    0.095064
     15          1           0        3.832984    0.823267    1.353393
     16          6           0        4.243938   -0.617089   -0.261046
     17          1           0        4.930357   -1.194711    0.382343
     18          1           0        4.711418   -0.552470   -1.260428
     19          6           0       -4.100314    0.597631   -1.247282
     20          1           0       -5.026741    1.170830   -1.063151
     21          1           0       -3.918957    0.571641   -2.336161
     22          6           0       -4.187234   -0.827253   -0.686169
     23          1           0       -4.916543   -1.446154   -1.237725
     24          1           0       -4.522439   -0.792623    0.370067
     25          6           0        2.291341    2.760273   -0.058608
     26          1           0        1.627908    2.653223    0.821686
     27          1           0        3.153530    3.363453    0.285317
     28          6           0        2.925968   -2.350107   -1.609608
     29          1           0        3.823477   -2.985740   -1.476432
     30          1           0        3.072815   -1.767702   -2.536628
     31          6           0       -2.506605    2.655801   -1.105184
     32          1           0       -3.431370    3.205522   -1.364944
     33          1           0       -1.950917    2.516146   -2.050360
     34          6           0       -2.611152   -2.635885    0.249263
     35          1           0       -2.727290   -2.255778    1.281839
     36          1           0       -3.457859   -3.331099    0.087424
     37          6           0        1.576518    3.494324   -1.200196
     38          1           0        1.160923    4.457964   -0.861928
     39          1           0        0.753502    2.884800   -1.613647
     40          1           0        2.275160    3.689783   -2.031443
     41          6           0        1.683010   -3.225283   -1.755471
     42          1           0        0.795236   -2.600456   -1.965831
     43          1           0        1.797909   -3.925927   -2.599317
     44          1           0        1.485409   -3.816278   -0.843076
     45          6           0       -1.695147    3.472726   -0.094764
     46          1           0       -0.781219    2.936975    0.214922
     47          1           0       -2.287295    3.672566    0.816826
     48          1           0       -1.384720    4.442027   -0.518085
     49          6           0       -1.291985   -3.398584    0.121879
     50          1           0       -1.148321   -3.778936   -0.903326
     51          1           0       -0.430819   -2.751528    0.359856
     52          1           0       -1.264768   -4.258321    0.812837
     53          6           0        1.317164   -0.139502    2.318265
     54          1           0        2.408243   -0.186844    2.368945
     55          6           0        0.578343   -0.159628    3.508475
     56          1           0        1.099056   -0.211486    4.469842
     57          6           0       -0.821940   -0.112695    3.467810
     58          1           0       -1.401231   -0.125830    4.396381
     59          6           0       -1.480890   -0.059398    2.233527
     60          1           0       -2.575492   -0.032060    2.206171
 ---------------------------------------------------------------------

 SCF Done:  E(RPBE1PBE) =  -1541.81642261     A.U. after    2 cycles

 The electronic state is 1-A.
 Alpha  occ. eigenvalues --  -77.17540 -77.17457 -10.24273 -10.24196 -10.23895
 Alpha  occ. eigenvalues --  -10.23842 -10.23806 -10.23753 -10.22746 -10.22726
 Alpha  occ. eigenvalues --  -10.22607 -10.22401 -10.22139 -10.22074 -10.22064
 Alpha  occ. eigenvalues --  -10.22063 -10.22039 -10.21879 -10.21662 -10.21596
 Alpha  occ. eigenvalues --  -10.20617 -10.20565 -10.20475 -10.20217  -6.57227
 Alpha  occ. eigenvalues --   -6.57160  -4.70831  -4.70775  -4.70758  -4.70711
 Alpha  occ. eigenvalues --   -4.70337  -4.70269  -0.88412  -0.84945  -0.84828
 Alpha  occ. eigenvalues --   -0.80445  -0.80283  -0.77775  -0.77449  -0.77094
 Alpha  occ. eigenvalues --   -0.76902  -0.71175  -0.70796  -0.68415  -0.67914
 Alpha  occ. eigenvalues --   -0.63885  -0.63629  -0.61804  -0.61105  -0.60738
 Alpha  occ. eigenvalues --   -0.60221  -0.57876  -0.57588  -0.55044  -0.52457
 Alpha  occ. eigenvalues --   -0.50457  -0.48421  -0.48120  -0.47723  -0.47369
 Alpha  occ. eigenvalues --   -0.46210  -0.45411  -0.45150  -0.44636  -0.44207
 Alpha  occ. eigenvalues --   -0.44063  -0.42849  -0.42500  -0.41713  -0.41511
 Alpha  occ. eigenvalues --   -0.41321  -0.40811  -0.40438  -0.39617  -0.39411
 Alpha  occ. eigenvalues --   -0.38971  -0.38537  -0.36510  -0.36111  -0.35785
 Alpha  occ. eigenvalues --   -0.35578  -0.35391  -0.34994  -0.34650  -0.34484
 Alpha  occ. eigenvalues --   -0.33461  -0.33141  -0.32987  -0.32765  -0.32557
 Alpha  occ. eigenvalues --   -0.32475  -0.31559  -0.30840  -0.30679  -0.29667
 Alpha  occ. eigenvalues --   -0.26803  -0.25965  -0.23692  -0.17599
 Alpha virt. eigenvalues --   -0.03111  -0.03055   0.03637   0.03737   0.04187
 Alpha virt. eigenvalues --    0.04565   0.05023   0.05518   0.05912   0.06895
 Alpha virt. eigenvalues --    0.07291   0.07581   0.07629   0.08182   0.08679

 Mulliken charges:
               1
     1  P   -0.021501
     2  P   -0.001267
     3  C    0.030670
     4  C   -0.015324
     5  C   -0.078111
     6  H    0.083805
     7  C   -0.103508
     8  H    0.095552
     9  C   -0.130898
    10  H    0.070633
    11  C   -0.107993
    12  H    0.092877
    13  C   -0.161913
    14  H    0.095258
    15  H    0.101170
    16  C   -0.206080
    17  H    0.109437
    18  H    0.103549
    19  C   -0.132745
    20  H    0.106670
    21  H    0.103013
    22  C   -0.182647
    23  H    0.105711
    24  H    0.091430
    25  C   -0.198636
    26  H    0.131005
    27  H    0.098386
    28  C   -0.150255
    29  H    0.101691
    30  H    0.095932
    31  C   -0.165854
    32  H    0.095411
    33  H    0.110992
    34  C   -0.130863
    35  H    0.093925
    36  H    0.096408
    37  C   -0.397641
    38  H    0.119571
    39  H    0.144381
    40  H    0.123516
    41  C   -0.416941
    42  H    0.147030
    43  H    0.123391
    44  H    0.119242
    45  C   -0.376005
    46  H    0.121592
    47  H    0.118643
    48  H    0.116627
    49  C   -0.405824
    50  H    0.125540
    51  H    0.134782
    52  H    0.120157
    53  C   -0.150418
    54  H    0.123700
    55  C   -0.155156
    56  H    0.117612
    57  C   -0.120525
    58  H    0.118199
    59  C   -0.214116
    60  H    0.136714
 Sum of Mulliken charges =  -0.00000

 Dipole moment (field-independent basis, Debye):
    X=             -0.0658    Y=             -0.0719    Z=              1.7489  Tot=              1.7516
 Quadrupole moment (field-independent basis, Debye-Ang):
   XX=           -156.5406   YY=           -166.7712   ZZ=           -161.6817
   XY=              0.5463   XZ=             -0.2108   YZ=             -0.4263

 Summary of Natural Population Analysis:

                                       Natural Population
                Natural  -----------------------------------------------
    Atom  No    Charge         Core      Valence    Rydberg      Total
 -----------------------------------------------------------------------
      P    1    0.75865      9.99829     4.21621    0.02686    14.24135
      P    2    0.75282      9.99828     4.22065    0.02825    14.24718
      C    3   -0.31567      1.99897     4.28399    0.03270     6.31567
      C    4   -0.31541      1.99898     4.28378    0.03264     6.31541
      C    5   -0.47579      1.99943     4.45084    0.02553     6.47579
      H    6    0.22129      0.00000     0.77681    0.00191     0.77871
      C    7   -0.47663      1.99943     4.45383    0.02337     6.47663
      H    8    0.22082      0.00000     0.77687    0.00231     0.77918
      C    9   -0.47390      1.99943     4.44915    0.02532     6.47390
      H   10    0.20459      0.00000     0.79220    0.00320     0.79541
      C   11   -0.46551      1.99941     4.44124    0.02485     6.46551
      H   12    0.22514      0.00000     0.77342    0.00145     0.77486
      C   13   -0.41011      1.99942     4.39675    0.01394     6.41011
      H   14    0.21168      0.00000     0.78640    0.00192     0.78832
      H   15    0.19856      0.00000     0.79985    0.00159     0.80144
      C   16   -0.41463      1.99944     4.40065    0.01453     6.41463
      H   17    0.21771      0.00000     0.78080    0.00149     0.78229
      H   18    0.20440      0.00000     0.79379    0.00181     0.79560
      C   19   -0.41215      1.99942     4.39866    0.01407     6.41215
      H   20    0.21760      0.00000     0.78080    0.00160     0.78240
      H   21    0.20640      0.00000     0.79179    0.00181     0.79360
      C   22   -0.40380      1.99944     4.38975    0.01461     6.40380
      H   23    0.21427      0.00000     0.78395    0.00178     0.78573
      H   24    0.19882      0.00000     0.79947    0.00171     0.80118
      C   25   -0.40640      1.99942     4.39316    0.01383     6.40640
      H   26    0.20884      0.00000     0.78910    0.00206     0.79116
      H   27    0.20343      0.00000     0.79459    0.00198     0.79657
      C   28   -0.39892      1.99944     4.38392    0.01556     6.39892
      H   29    0.20041      0.00000     0.79784    0.00175     0.79959
      H   30    0.20352      0.00000     0.79459    0.00189     0.79648
      C   31   -0.40677      1.99942     4.39230    0.01505     6.40677
      H   32    0.19980      0.00000     0.79836    0.00184     0.80020
      H   33    0.21154      0.00000     0.78633    0.00214     0.78846
      C   34   -0.40498      1.99943     4.39031    0.01524     6.40498
      H   35    0.20335      0.00000     0.79448    0.00217     0.79665
      H   36    0.20160      0.00000     0.79624    0.00216     0.79840
      C   37   -0.61565      1.99950     4.60929    0.00687     6.61565
      H   38    0.21243      0.00000     0.78620    0.00137     0.78757
      H   39    0.21839      0.00000     0.77973    0.00188     0.78161
      H   40    0.20379      0.00000     0.79482    0.00139     0.79621
      C   41   -0.62092      1.99949     4.61429    0.00714     6.62092
      H   42    0.22209      0.00000     0.77634    0.00157     0.77791
      H   43    0.21126      0.00000     0.78752    0.00122     0.78874
      H   44    0.20442      0.00000     0.79414    0.00145     0.79558
      C   45   -0.61235      1.99950     4.60525    0.00761     6.61235
      H   46    0.21126      0.00000     0.78705    0.00169     0.78874
      H   47    0.20385      0.00000     0.79471    0.00145     0.79615
      H   48    0.21206      0.00000     0.78658    0.00136     0.78794
      C   49   -0.61683      1.99949     4.60572    0.01162     6.61683
      H   50    0.20770      0.00000     0.79092    0.00138     0.79230
      H   51    0.21425      0.00000     0.78429    0.00145     0.78575
      H   52    0.21264      0.00000     0.78639    0.00097     0.78736
      C   53   -0.21158      1.99910     4.19283    0.01965     6.21158
      H   54    0.21394      0.00000     0.78342    0.00264     0.78606
      C   55   -0.20712      1.99921     4.19000    0.01791     6.20712
      H   56    0.21837      0.00000     0.78034    0.00129     0.78163
      C   57   -0.20669      1.99920     4.18953    0.01795     6.20669
      H   58    0.21851      0.00000     0.78019    0.00130     0.78149
      C   59   -0.21317      1.99910     4.19391    0.02016     6.21317
      H   60    0.21480      0.00000     0.78248    0.00272     0.78520
 =======================================================================
   * Total *    0.00000     63.98223   133.50881    0.50896   198.00000

 Normal termination of Gaussian 09 at Tue Nov 30 21:12:59 2021.
