 Gaussian 09, Revision E.01,

 ----------------------------------------------------------------------
 # PBE1PBE/def2TZVP int=(grid=ultrafine) empiricaldispersion=GD3BJ nmr=
 giao
 ----------------------------------------------------------------------

 --------------------
 SS_Et_DuPhos_2 title
 --------------------
 Symbolic Z-matrix:
 Charge =  0 Multiplicity = 1

 SCF Done:  E(RPBE1PBE) =  -1541.81771969     A.U. after   15 cycles

      1  P    Isotropic =   304.4610   Anisotropy =    45.2977

      2  P    Isotropic =   310.6915   Anisotropy =    51.5096

      3  C    Isotropic =    29.5126   Anisotropy =   204.6400

      4  C    Isotropic =    31.1782   Anisotropy =   204.1219

      5  C    Isotropic =   138.8253   Anisotropy =    24.1867

      6  H    Isotropic =    28.9241   Anisotropy =     6.9303

      7  C    Isotropic =   134.6513   Anisotropy =    13.1919

      8  H    Isotropic =    29.5765   Anisotropy =     3.1551

      9  C    Isotropic =   131.9087   Anisotropy =    24.1281

     10  H    Isotropic =    29.0033   Anisotropy =     3.1291

     11  C    Isotropic =   136.8940   Anisotropy =    21.8215

     12  H    Isotropic =    29.2665   Anisotropy =     6.8126

     13  C    Isotropic =   147.6957   Anisotropy =    34.5267

     14  H    Isotropic =    29.3086   Anisotropy =     9.2690

     15  H    Isotropic =    29.7577   Anisotropy =    10.6849

     16  C    Isotropic =   145.6135   Anisotropy =    30.1097

     17  H    Isotropic =    29.1335   Anisotropy =     8.1800

     18  H    Isotropic =    29.6694   Anisotropy =    10.6888

     19  C    Isotropic =   147.6040   Anisotropy =    31.9524

     20  H    Isotropic =    29.1866   Anisotropy =    10.4435

     21  H    Isotropic =    30.0102   Anisotropy =     8.1598

     22  C    Isotropic =   144.6936   Anisotropy =    26.7973

     23  H    Isotropic =    29.4183   Anisotropy =    10.8001

     24  H    Isotropic =    29.6954   Anisotropy =     6.8980

     25  C    Isotropic =   155.2473   Anisotropy =    22.6587

     26  H    Isotropic =    29.5442   Anisotropy =     4.2110

     27  H    Isotropic =    30.0446   Anisotropy =    10.2566

     28  C    Isotropic =   152.1198   Anisotropy =    28.6615

     29  H    Isotropic =    29.9684   Anisotropy =     9.9242

     30  H    Isotropic =    29.9207   Anisotropy =     5.5296

     31  C    Isotropic =   152.7827   Anisotropy =    22.8170

     32  H    Isotropic =    29.5716   Anisotropy =     9.7252

     33  H    Isotropic =    30.0075   Anisotropy =     6.4821

     34  C    Isotropic =   157.7602   Anisotropy =    22.8158

     35  H    Isotropic =    30.2843   Anisotropy =     4.7402

     36  H    Isotropic =    29.8977   Anisotropy =    10.2185

     37  C    Isotropic =   169.4137   Anisotropy =    18.4531

     38  H    Isotropic =    31.0898   Anisotropy =    11.2873

     39  H    Isotropic =    31.9037   Anisotropy =     9.5424

     40  H    Isotropic =    31.1126   Anisotropy =     8.1016

     41  C    Isotropic =   168.6251   Anisotropy =    18.7758

     42  H    Isotropic =    29.7309   Anisotropy =     7.3434

     43  H    Isotropic =    30.3822   Anisotropy =    11.2273

     44  H    Isotropic =    30.9073   Anisotropy =     6.5121

     45  C    Isotropic =   165.8059   Anisotropy =    23.2129

     46  H    Isotropic =    29.9333   Anisotropy =     9.6395

     47  H    Isotropic =    30.9933   Anisotropy =     5.3193

     48  H    Isotropic =    30.2729   Anisotropy =    10.5590

     49  C    Isotropic =   167.6542   Anisotropy =    22.9159

     50  H    Isotropic =    30.7862   Anisotropy =     7.7951

     51  H    Isotropic =    31.1264   Anisotropy =     9.2081

     52  H    Isotropic =    30.8680   Anisotropy =    10.5982

     53  C    Isotropic =    43.1355   Anisotropy =   180.4405

     54  H    Isotropic =    23.3351   Anisotropy =    10.6109

     55  C    Isotropic =    51.5433   Anisotropy =   184.4693

     56  H    Isotropic =    23.8626   Anisotropy =     5.4348

     57  C    Isotropic =    52.0221   Anisotropy =   184.0366

     58  H    Isotropic =    23.8487   Anisotropy =     5.2388

     59  C    Isotropic =    42.8484   Anisotropy =   183.0700

     60  H    Isotropic =    23.3869   Anisotropy =    10.5552

 Normal termination of Gaussian 09 at Sun Dec  5 09:41:14 2021.
 Gaussian 09:  ES64L-G09RevE.01 30-Nov-2015

 ----------------------------------------------------------------------
 # PBE1PBE/def2TZVP int=(grid=ultrafine) empiricaldispersion=GD3BJ pop=
 nbo guess=read geom=check
 ----------------------------------------------------------------------

 --------------------
 SS_Et_DuPhos_2 title
 --------------------
 Structure from the checkpoint file:  "SS_Et_DuPhos_2_SPE_NoPd.chk"
 Charge =  0 Multiplicity = 1

                         Standard orientation:
 ---------------------------------------------------------------------
 Center     Atomic      Atomic             Coordinates (Angstroms)
 Number     Number       Type             X           Y           Z
 ---------------------------------------------------------------------
      1         15           0       -1.506989    0.088157   -0.576679
      2         15           0        1.635867    0.090355   -0.622714
      3          6           0       -0.615762   -0.097150    1.034446
      4          6           0        0.797075   -0.182114    0.999587
      5          6           0       -2.742119   -1.326598   -0.822200
      6          1           0       -2.419837   -1.810570   -1.760691
      7          6           0       -2.795836    1.438959   -0.265394
      8          1           0       -2.495211    1.950110    0.668521
      9          6           0        2.901539   -1.291642   -0.837171
     10          1           0        2.942604   -1.793347    0.151513
     11          6           0        2.907248    1.462161   -0.395330
     12          1           0        2.904316    1.933816   -1.397230
     13          6           0       -4.065696   -0.558033   -1.049126
     14          1           0       -4.089188   -0.192602   -2.090267
     15          1           0       -4.929117   -1.232348   -0.906335
     16          6           0       -4.104303    0.633789   -0.078616
     17          1           0       -4.189028    0.267054    0.962126
     18          1           0       -4.978985    1.282947   -0.262628
     19          6           0        4.223526   -0.534818   -1.088580
     20          1           0        5.086099   -1.197043   -0.895232
     21          1           0        4.255495   -0.236276   -2.151995
     22          6           0        4.245075    0.717231   -0.202846
     23          1           0        5.089733    1.383778   -0.453393
     24          1           0        4.364587    0.433723    0.862125
     25          6           0       -2.836676   -2.379116    0.297708
     26          1           0       -3.052564   -1.899982    1.270016
     27          1           0       -3.726695   -2.996045    0.066824
     28          6           0       -2.900870    2.480221   -1.397644
     29          1           0       -3.798409    3.091647   -1.180321
     30          1           0       -3.077824    1.966280   -2.358241
     31          6           0        2.567935   -2.323933   -1.922423
     32          1           0        3.431962   -3.012783   -1.994918
     33          1           0        2.490486   -1.796389   -2.889811
     34          6           0        2.603860    2.516947    0.674687
     35          1           0        2.578818    2.039813    1.672710
     36          1           0        3.461663    3.216742    0.693013
     37          6           0       -1.617438   -3.295649    0.427891
     38          1           0       -1.792184   -4.070469    1.193672
     39          1           0       -0.713372   -2.736545    0.719617
     40          1           0       -1.403221   -3.803898   -0.527583
     41          6           0       -1.680160    3.389419   -1.536968
     42          1           0       -0.787093    2.804888   -1.827139
     43          1           0       -1.846712    4.141244   -2.326229
     44          1           0       -1.456845    3.921980   -0.594663
     45          6           0        1.287181   -3.116371   -1.660323
     46          1           0        0.408532   -2.446285   -1.701937
     47          1           0        1.300738   -3.608219   -0.670660
     48          1           0        1.141055   -3.895109   -2.427559
     49          6           0        1.308424    3.296298    0.437670
     50          1           0        1.289409    3.744269   -0.570190
     51          1           0        0.426778    2.638347    0.521565
     52          1           0        1.192457    4.106809    1.177180
     53          6           0       -1.281911   -0.157384    2.273743
     54          1           0       -2.370562   -0.051679    2.317183
     55          6           0       -0.560642   -0.350012    3.459015
     56          1           0       -1.089636   -0.399473    4.415940
     57          6           0        0.834715   -0.483282    3.418495
     58          1           0        1.398745   -0.643475    4.342726
     59          6           0        1.510968   -0.390281    2.195079
     60          1           0        2.603044   -0.470428    2.172992
 ---------------------------------------------------------------------

 SCF Done:  E(RPBE1PBE) =  -1541.81771969     A.U. after    2 cycles

 The electronic state is 1-A.
 Alpha  occ. eigenvalues --  -77.17657 -77.17446 -10.24311 -10.24160 -10.23918
 Alpha  occ. eigenvalues --  -10.23871 -10.23826 -10.23799 -10.22847 -10.22666
 Alpha  occ. eigenvalues --  -10.22576 -10.22560 -10.22129 -10.22117 -10.22100
 Alpha  occ. eigenvalues --  -10.22082 -10.21908 -10.21888 -10.21619 -10.21607
 Alpha  occ. eigenvalues --  -10.20487 -10.20454 -10.20418 -10.20177  -6.57331
 Alpha  occ. eigenvalues --   -6.57152  -4.70928  -4.70892  -4.70754  -4.70701
 Alpha  occ. eigenvalues --   -4.70440  -4.70261  -0.88459  -0.84993  -0.84876
 Alpha  occ. eigenvalues --   -0.80389  -0.80138  -0.77804  -0.77447  -0.77028
 Alpha  occ. eigenvalues --   -0.76646  -0.71214  -0.70953  -0.68285  -0.67722
 Alpha  occ. eigenvalues --   -0.64034  -0.63581  -0.62192  -0.61612  -0.60734
 Alpha  occ. eigenvalues --   -0.60080  -0.57781  -0.56090  -0.55150  -0.52576
 Alpha  occ. eigenvalues --   -0.50647  -0.48438  -0.48077  -0.47896  -0.47271
 Alpha  occ. eigenvalues --   -0.46254  -0.45703  -0.45038  -0.44852  -0.44531
 Alpha  occ. eigenvalues --   -0.44358  -0.42661  -0.42587  -0.42164  -0.41417
 Alpha  occ. eigenvalues --   -0.41214  -0.40668  -0.40200  -0.39570  -0.38948
 Alpha  occ. eigenvalues --   -0.38773  -0.37254  -0.36917  -0.36368  -0.36133
 Alpha  occ. eigenvalues --   -0.35936  -0.35174  -0.34858  -0.34515  -0.34448
 Alpha  occ. eigenvalues --   -0.33524  -0.33152  -0.33085  -0.32886  -0.32641
 Alpha  occ. eigenvalues --   -0.31965  -0.31563  -0.31108  -0.30674  -0.29853
 Alpha  occ. eigenvalues --   -0.26795  -0.26001  -0.23630  -0.17508
 Alpha virt. eigenvalues --   -0.03079  -0.02993   0.03471   0.03982   0.04151
 Alpha virt. eigenvalues --    0.04736   0.04989   0.05645   0.05695   0.06848
 Alpha virt. eigenvalues --    0.07235   0.07487   0.07650   0.08361   0.08550

 Mulliken charges:
               1
     1  P   -0.015503
     2  P   -0.008397
     3  C   -0.069546
     4  C    0.093065
     5  C   -0.098669
     6  H    0.102880
     7  C   -0.110312
     8  H    0.104704
     9  C   -0.137563
    10  H    0.084585
    11  C   -0.125158
    12  H    0.091194
    13  C   -0.172673
    14  H    0.120828
    15  H    0.102114
    16  C   -0.195629
    17  H    0.113276
    18  H    0.096411
    19  C   -0.146896
    20  H    0.107449
    21  H    0.098946
    22  C   -0.163985
    23  H    0.099587
    24  H    0.090400
    25  C   -0.164058
    26  H    0.089051
    27  H    0.093306
    28  C   -0.163012
    29  H    0.095554
    30  H    0.094202
    31  C   -0.134239
    32  H    0.095177
    33  H    0.096972
    34  C   -0.120863
    35  H    0.100003
    36  H    0.096132
    37  C   -0.400695
    38  H    0.119849
    39  H    0.143340
    40  H    0.126799
    41  C   -0.410412
    42  H    0.148676
    43  H    0.123736
    44  H    0.117673
    45  C   -0.399999
    46  H    0.135192
    47  H    0.115411
    48  H    0.122121
    49  C   -0.397422
    50  H    0.121580
    51  H    0.129612
    52  H    0.120256
    53  C   -0.137128
    54  H    0.127234
    55  C   -0.157738
    56  H    0.117466
    57  C   -0.114325
    58  H    0.118104
    59  C   -0.240498
    60  H    0.131836
 Sum of Mulliken charges =  -0.00000

 Dipole moment (field-independent basis, Debye):
    X=              0.0936    Y=             -0.2786    Z=              1.7143  Tot=              1.7393
 Quadrupole moment (field-independent basis, Debye-Ang):
   XX=           -157.1460   YY=           -166.8695   ZZ=           -161.3317
   XY=              0.1166   XZ=              0.0743   YZ=             -0.2768

 Summary of Natural Population Analysis:

                                       Natural Population
                Natural  -----------------------------------------------
    Atom  No    Charge         Core      Valence    Rydberg      Total
 -----------------------------------------------------------------------
      P    1    0.74980      9.99829     4.22468    0.02723    14.25020
      P    2    0.75361      9.99827     4.22062    0.02749    14.24639
      C    3   -0.31257      1.99897     4.28113    0.03247     6.31257
      C    4   -0.31730      1.99897     4.28537    0.03295     6.31730
      C    5   -0.47011      1.99942     4.44637    0.02433     6.47011
      H    6    0.23072      0.00000     0.76781    0.00147     0.76928
      C    7   -0.47849      1.99943     4.45475    0.02431     6.47849
      H    8    0.22597      0.00000     0.77182    0.00221     0.77403
      C    9   -0.47180      1.99943     4.44834    0.02404     6.47180
      H   10    0.21087      0.00000     0.78627    0.00285     0.78913
      C   11   -0.46956      1.99942     4.44465    0.02549     6.46956
      H   12    0.22527      0.00000     0.77327    0.00145     0.77473
      C   13   -0.41851      1.99943     4.40427    0.01480     6.41851
      H   14    0.21144      0.00000     0.78694    0.00162     0.78856
      H   15    0.21786      0.00000     0.78033    0.00182     0.78214
      C   16   -0.41079      1.99944     4.39741    0.01394     6.41079
      H   17    0.20306      0.00000     0.79546    0.00148     0.79694
      H   18    0.21252      0.00000     0.78553    0.00195     0.78748
      C   19   -0.41155      1.99943     4.39782    0.01430     6.41155
      H   20    0.21792      0.00000     0.78049    0.00159     0.78208
      H   21    0.20355      0.00000     0.79451    0.00194     0.79645
      C   22   -0.40523      1.99943     4.39135    0.01444     6.40523
      H   23    0.21281      0.00000     0.78530    0.00189     0.78719
      H   24    0.19722      0.00000     0.80110    0.00168     0.80278
      C   25   -0.40931      1.99944     4.39451    0.01536     6.40931
      H   26    0.20097      0.00000     0.79697    0.00206     0.79903
      H   27    0.19946      0.00000     0.79821    0.00233     0.80054
      C   28   -0.40334      1.99943     4.38840    0.01551     6.40334
      H   29    0.19862      0.00000     0.79941    0.00198     0.80138
      H   30    0.20391      0.00000     0.79407    0.00203     0.79609
      C   31   -0.40065      1.99943     4.38583    0.01539     6.40065
      H   32    0.19974      0.00000     0.79845    0.00182     0.80026
      H   33    0.20629      0.00000     0.79169    0.00202     0.79371
      C   34   -0.40510      1.99943     4.39059    0.01508     6.40510
      H   35    0.20628      0.00000     0.79156    0.00216     0.79372
      H   36    0.20197      0.00000     0.79590    0.00213     0.79803
      C   37   -0.61687      1.99949     4.60589    0.01149     6.61687
      H   38    0.21257      0.00000     0.78644    0.00100     0.78743
      H   39    0.21609      0.00000     0.78218    0.00173     0.78391
      H   40    0.20669      0.00000     0.79198    0.00133     0.79331
      C   41   -0.61980      1.99949     4.61338    0.00693     6.61980
      H   42    0.22351      0.00000     0.77495    0.00153     0.77649
      H   43    0.21100      0.00000     0.78779    0.00120     0.78900
      H   44    0.20356      0.00000     0.79501    0.00144     0.79644
      C   45   -0.61931      1.99949     4.61272    0.00711     6.61931
      H   46    0.21861      0.00000     0.77972    0.00167     0.78139
      H   47    0.20547      0.00000     0.79308    0.00145     0.79453
      H   48    0.21216      0.00000     0.78664    0.00120     0.78784
      C   49   -0.61599      1.99949     4.60493    0.01157     6.61599
      H   50    0.20779      0.00000     0.79082    0.00138     0.79221
      H   51    0.21438      0.00000     0.78425    0.00136     0.78562
      H   52    0.21232      0.00000     0.78672    0.00096     0.78768
      C   53   -0.21403      1.99909     4.19501    0.01993     6.21403
      H   54    0.21518      0.00000     0.78214    0.00268     0.78482
      C   55   -0.20773      1.99921     4.19059    0.01793     6.20773
      H   56    0.21875      0.00000     0.77995    0.00130     0.78125
      C   57   -0.20804      1.99921     4.19092    0.01791     6.20804
      H   58    0.21869      0.00000     0.78001    0.00130     0.78131
      C   59   -0.21587      1.99910     4.19657    0.02020     6.21587
      H   60    0.21533      0.00000     0.78168    0.00299     0.78467
 =======================================================================
   * Total *    0.00000     63.98223   133.50453    0.51323   198.00000

 Normal termination of Gaussian 09 at Sun Dec  5 09:44:37 2021.
