 Gaussian 09, Revision E.01,

 ----------------------------------------------------------------------
 # PBE1PBE gen pseudo=read int=(grid=ultrafine) empiricaldispersion=GD3
 BJ nmr=giao
 ----------------------------------------------------------------------

 --------------------
 SS_Et_DuPhos_3 title
 --------------------
 Symbolic Z-matrix:
 Charge =  0 Multiplicity = 1

 SCF Done:  E(RPBE1PBE) =  -2590.03502164     A.U. after   18 cycles

      1  Cl   Isotropic =  1011.5758   Anisotropy =   517.7361

      2  P    Isotropic =   180.0901   Anisotropy =   151.7745

      3  P    Isotropic =   197.5109   Anisotropy =   145.9200

      4  C    Isotropic =    31.1371   Anisotropy =   180.9611

      5  C    Isotropic =    32.9241   Anisotropy =   177.4169

      6  C    Isotropic =   132.2503   Anisotropy =    20.3563

      7  H    Isotropic =    27.7166   Anisotropy =     4.7886

      8  C    Isotropic =   126.1050   Anisotropy =    26.7957

      9  H    Isotropic =    29.1805   Anisotropy =     4.2284

     10  C    Isotropic =   124.5835   Anisotropy =    24.4194

     11  H    Isotropic =    28.7381   Anisotropy =     5.5423

     12  C    Isotropic =   134.2961   Anisotropy =    24.6620

     13  H    Isotropic =    26.8168   Anisotropy =     6.5902

     14  C    Isotropic =   147.5215   Anisotropy =    35.2746

     15  H    Isotropic =    28.3471   Anisotropy =     6.7648

     16  H    Isotropic =    29.6365   Anisotropy =    11.7468

     17  C    Isotropic =   146.0333   Anisotropy =    30.7411

     18  H    Isotropic =    29.1509   Anisotropy =     9.7213

     19  H    Isotropic =    29.4113   Anisotropy =    11.7262

     20  C    Isotropic =   151.7720   Anisotropy =    25.7687

     21  H    Isotropic =    29.7061   Anisotropy =    12.3470

     22  H    Isotropic =    28.1534   Anisotropy =     4.9971

     23  C    Isotropic =   145.3751   Anisotropy =    21.8267

     24  H    Isotropic =    28.9849   Anisotropy =    11.0885

     25  H    Isotropic =    29.8251   Anisotropy =     9.4166

     26  C    Isotropic =   156.5645   Anisotropy =    22.1565

     27  H    Isotropic =    29.7136   Anisotropy =     5.8255

     28  H    Isotropic =    29.8839   Anisotropy =    11.5033

     29  C    Isotropic =   155.4037   Anisotropy =    23.0786

     30  H    Isotropic =    30.1292   Anisotropy =    11.6632

     31  H    Isotropic =    28.1094   Anisotropy =     4.9273

     32  C    Isotropic =   159.7739   Anisotropy =    12.1600

     33  H    Isotropic =    29.7174   Anisotropy =     6.9237

     34  H    Isotropic =    29.6593   Anisotropy =    11.6605

     35  C    Isotropic =   157.4030   Anisotropy =    23.3754

     36  H    Isotropic =    30.0095   Anisotropy =     6.2715

     37  H    Isotropic =    29.6282   Anisotropy =    11.2903

     38  C    Isotropic =   169.9065   Anisotropy =    21.3615

     39  H    Isotropic =    30.9527   Anisotropy =    12.6354

     40  H    Isotropic =    31.7800   Anisotropy =     9.4019

     41  H    Isotropic =    30.7595   Anisotropy =     7.1346

     42  C    Isotropic =   166.7959   Anisotropy =    17.3651

     43  H    Isotropic =    28.8994   Anisotropy =    12.0817

     44  H    Isotropic =    30.2269   Anisotropy =    11.9453

     45  H    Isotropic =    31.0921   Anisotropy =     7.4676

     46  C    Isotropic =   170.1872   Anisotropy =    10.7318

     47  H    Isotropic =    30.0322   Anisotropy =     6.5899

     48  H    Isotropic =    28.6541   Anisotropy =    13.6333

     49  H    Isotropic =    30.4180   Anisotropy =    11.5619

     50  C    Isotropic =   169.0359   Anisotropy =    19.3266

     51  H    Isotropic =    30.4276   Anisotropy =     6.0530

     52  H    Isotropic =    31.4348   Anisotropy =     8.2308

     53  H    Isotropic =    30.8312   Anisotropy =    12.2167

     54  C    Isotropic =    46.5811   Anisotropy =   183.0899

     55  H    Isotropic =    23.4234   Anisotropy =    11.5063

     56  C    Isotropic =    48.8976   Anisotropy =   190.4122

     57  H    Isotropic =    23.5851   Anisotropy =     5.7025

     58  C    Isotropic =    49.5560   Anisotropy =   190.6020

     59  H    Isotropic =    23.5956   Anisotropy =     5.4758

     60  C    Isotropic =    45.9060   Anisotropy =   183.9152

     61  H    Isotropic =    23.5092   Anisotropy =    11.2852

     62  Cl   Isotropic =   930.2757   Anisotropy =   462.4511

     63  Pd   Isotropic =  -128.9291   Anisotropy =   210.6227

 Normal termination of Gaussian 09 at Sun Dec  5 10:21:11 2021.
 Gaussian 09:  ES64L-G09RevE.01 30-Nov-2015

 ----------------------------------------------------------------------
 # PBE1PBE gen pseudo=read int=(grid=ultrafine) empiricaldispersion=GD3
 BJ pop=nbo guess=read geom=check
 ----------------------------------------------------------------------

 --------------------
 SS_Et_DuPhos_3 title
 --------------------
 Structure from the checkpoint file:  "SS_Et_DuPhos_3_SPE.chk"
 Charge =  0 Multiplicity = 1

                         Standard orientation:
 ---------------------------------------------------------------------
 Center     Atomic      Atomic             Coordinates (Angstroms)
 Number     Number       Type             X           Y           Z
 ---------------------------------------------------------------------
      1         17           0       -1.596112   -3.029465    0.311475
      2         15           0       -1.558832    0.194915   -0.015771
      3         15           0        1.560892    0.358406   -0.000400
      4          6           0       -0.786265    1.874206   -0.116818
      5          6           0        0.626690    1.945039   -0.107085
      6          6           0       -2.759499    0.068056    1.436102
      7          1           0       -2.392843   -0.805031    2.003949
      8          6           0       -2.867849    0.235761   -1.379616
      9          1           0       -2.617579    1.104568   -2.016821
     10          6           0        2.719442    0.587108    1.462288
     11          1           0        2.861145    1.687834    1.495055
     12          6           0        2.938023    0.286178   -1.283269
     13          1           0        2.899246   -0.782408   -1.570315
     14          6           0       -4.093023   -0.289748    0.736803
     15          1           0       -4.100063   -1.375306    0.537264
     16          1           0       -4.948181   -0.060555    1.397826
     17          6           0       -4.179039    0.477901   -0.592806
     18          1           0       -4.311881    1.558241   -0.392031
     19          1           0       -5.047771    0.155030   -1.194216
     20          6           0        4.033183   -0.027279    0.942011
     21          1           0        4.871232    0.233247    1.613276
     22          1           0        3.946940   -1.127810    0.906232
     23          6           0        4.237335    0.524046   -0.479375
     24          1           0        5.088924    0.041996   -0.990966
     25          1           0        4.455588    1.610160   -0.432970
     26          6           0       -2.830519    1.285125    2.373143
     27          1           0       -3.091947    2.202859    1.814514
     28          1           0       -3.674614    1.102773    3.065802
     29          6           0       -2.901846   -1.027110   -2.260333
     30          1           0       -3.803269   -0.945343   -2.898641
     31          1           0       -3.025705   -1.922214   -1.626635
     32          6           0        2.224917    0.153030    2.852389
     33          1           0        1.348642    0.772761    3.119628
     34          1           0        3.021364    0.438710    3.567761
     35          6           0        2.760886    1.155240   -2.532826
     36          1           0        2.746339    2.226196   -2.255080
     37          1           0        3.664212    1.015836   -3.157741
     38          6           0       -1.551625    1.513477    3.185890
     39          1           0       -1.688411    2.323214    3.922372
     40          1           0       -0.705563    1.794695    2.536317
     41          1           0       -1.266050    0.597697    3.732793
     42          6           0       -1.660097   -1.199921   -3.137015
     43          1           0       -0.760373   -1.361929   -2.513745
     44          1           0       -1.764887   -2.081291   -3.791172
     45          1           0       -1.484635   -0.314587   -3.775789
     46          6           0        1.878693   -1.326984    3.038150
     47          1           0        2.708773   -1.990213    2.746339
     48          1           0        1.008790   -1.622205    2.425205
     49          1           0        1.634993   -1.524959    4.096231
     50          6           0        1.511780    0.810643   -3.350578
     51          1           0        1.489443   -0.261494   -3.610211
     52          1           0        0.589782    1.031352   -2.785166
     53          1           0        1.476944    1.393130   -4.286769
     54          6           0       -1.537181    3.059361   -0.237792
     55          1           0       -2.630385    3.015557   -0.274096
     56          6           0       -0.894297    4.301229   -0.320343
     57          1           0       -1.488179    5.215932   -0.413473
     58          6           0        0.505877    4.372409   -0.282666
     59          1           0        1.008695    5.342679   -0.343459
     60          6           0        1.263317    3.198887   -0.178180
     61          1           0        2.356691    3.259831   -0.156599
     62         17           0        1.931487   -2.869656   -0.225660
     63         46           0        0.088237   -1.343992   -0.006944
 ---------------------------------------------------------------------

 SCF Done:  E(RPBE1PBE) =  -2590.03502164     A.U. after    2 cycles

 The electronic state is 1-A.
 Alpha  occ. eigenvalues -- -101.61204-101.61018 -77.26140 -77.25931 -10.28080
 Alpha  occ. eigenvalues --  -10.27970 -10.27298 -10.27254 -10.27043 -10.26987
 Alpha  occ. eigenvalues --  -10.25872 -10.25863 -10.25487 -10.25202 -10.24446
 Alpha  occ. eigenvalues --  -10.24349 -10.24112 -10.23996 -10.23620 -10.23410
 Alpha  occ. eigenvalues --  -10.23344 -10.22632 -10.22337 -10.22118 -10.20721
 Alpha  occ. eigenvalues --  -10.20205  -9.43715  -9.43536  -7.16868  -7.16692
 Alpha  occ. eigenvalues --   -7.16455  -7.16423  -7.16273  -7.16241  -6.65418
 Alpha  occ. eigenvalues --   -6.65236  -4.79029  -4.78925  -4.78850  -4.78765
 Alpha  occ. eigenvalues --   -4.78738  -4.78585  -3.52142  -2.19861  -2.19717
 Alpha  occ. eigenvalues --   -2.16523  -0.91988  -0.87608  -0.87490  -0.82310
 Alpha  occ. eigenvalues --   -0.82206  -0.81434  -0.80843  -0.78429  -0.78284
 Alpha  occ. eigenvalues --   -0.74125  -0.73480  -0.72895  -0.72440  -0.71850
 Alpha  occ. eigenvalues --   -0.70964  -0.67143  -0.66234  -0.64249  -0.64099
 Alpha  occ. eigenvalues --   -0.63110  -0.62676  -0.59450  -0.58406  -0.57888
 Alpha  occ. eigenvalues --   -0.55892  -0.53544  -0.51601  -0.50744  -0.50294
 Alpha  occ. eigenvalues --   -0.49618  -0.49093  -0.48332  -0.47824  -0.47296
 Alpha  occ. eigenvalues --   -0.46359  -0.45899  -0.45283  -0.44813  -0.44458
 Alpha  occ. eigenvalues --   -0.43736  -0.43208  -0.42908  -0.42280  -0.41953
 Alpha  occ. eigenvalues --   -0.41308  -0.40012  -0.39582  -0.39055  -0.38698
 Alpha  occ. eigenvalues --   -0.38387  -0.38161  -0.37624  -0.37374  -0.37054
 Alpha  occ. eigenvalues --   -0.36975  -0.36186  -0.35747  -0.35629  -0.35305
 Alpha  occ. eigenvalues --   -0.35160  -0.34984  -0.34578  -0.34424  -0.34371
 Alpha  occ. eigenvalues --   -0.33701  -0.33646  -0.33311  -0.33153  -0.30943
 Alpha  occ. eigenvalues --   -0.30751  -0.29789  -0.29219  -0.28448  -0.28383
 Alpha  occ. eigenvalues --   -0.25780  -0.24957  -0.24106  -0.23869  -0.23538
 Alpha virt. eigenvalues --   -0.06664  -0.06389  -0.06028   0.00055   0.00287
 Alpha virt. eigenvalues --    0.01759   0.02499   0.02603   0.03663   0.03715
 Alpha virt. eigenvalues --    0.04696   0.05109   0.05497   0.05652   0.06082

 Mulliken charges:
               1
     1  Cl  -0.438288
     2  P    0.136865
     3  P    0.132828
     4  C   -0.062900
     5  C   -0.010280
     6  C   -0.089760
     7  H    0.155456
     8  C   -0.091052
     9  H    0.119592
    10  C   -0.073702
    11  H    0.100691
    12  C   -0.114508
    13  H    0.147340
    14  C   -0.198570
    15  H    0.164674
    16  H    0.110205
    17  C   -0.211993
    18  H    0.116192
    19  H    0.117336
    20  C   -0.196478
    21  H    0.113487
    22  H    0.151007
    23  C   -0.180709
    24  H    0.124375
    25  H    0.093471
    26  C   -0.166955
    27  H    0.093872
    28  H    0.114879
    29  C   -0.187811
    30  H    0.100784
    31  H    0.152700
    32  C   -0.159169
    33  H    0.111798
    34  H    0.104782
    35  C   -0.135164
    36  H    0.087084
    37  H    0.113904
    38  C   -0.400255
    39  H    0.130368
    40  H    0.125088
    41  H    0.139737
    42  C   -0.414992
    43  H    0.190395
    44  H    0.133909
    45  H    0.112744
    46  C   -0.425238
    47  H    0.138013
    48  H    0.202785
    49  H    0.123099
    50  C   -0.399356
    51  H    0.149342
    52  H    0.127000
    53  H    0.128883
    54  C   -0.164165
    55  H    0.133797
    56  C   -0.140540
    57  H    0.130827
    58  C   -0.114012
    59  H    0.131483
    60  C   -0.237782
    61  H    0.148397
    62  Cl  -0.435037
    63  Pd   0.139528
 Sum of Mulliken charges =  -0.00000

 Dipole moment (field-independent basis, Debye):
    X=             -0.7326    Y=             12.2804    Z=             -0.0766  Tot=             12.3025
 Quadrupole moment (field-independent basis, Debye-Ang):
   XX=           -191.4083   YY=           -226.9779   ZZ=           -204.3572
   XY=              1.8082   XZ=              1.0280   YZ=              0.1437

 Summary of Natural Population Analysis:

                                       Natural Population
                Natural  -----------------------------------------------
    Atom  No    Charge         Core      Valence    Rydberg      Total
 -----------------------------------------------------------------------
     Cl    1   -0.46011      9.99965     7.45137    0.00909    17.46011
      P    2    1.16594      9.99562     3.78385    0.05459    13.83406
      P    3    1.17400      9.99560     3.77651    0.05388    13.82600
      C    4   -0.34076      1.99895     4.30688    0.03493     6.34076
      C    5   -0.34812      1.99896     4.31380    0.03536     6.34812
      C    6   -0.49380      1.99938     4.46724    0.02719     6.49380
      H    7    0.27343      0.00000     0.72511    0.00146     0.72657
      C    8   -0.48392      1.99939     4.45867    0.02587     6.48392
      H    9    0.23445      0.00000     0.76370    0.00185     0.76555
      C   10   -0.47434      1.99938     4.44786    0.02710     6.47434
      H   11    0.22392      0.00000     0.77408    0.00199     0.77608
      C   12   -0.50218      1.99937     4.47634    0.02646     6.50218
      H   13    0.28082      0.00000     0.71745    0.00173     0.71918
      C   14   -0.42514      1.99942     4.41111    0.01461     6.42514
      H   15    0.24521      0.00000     0.75334    0.00145     0.75479
      H   16    0.22310      0.00000     0.77516    0.00174     0.77690
      C   17   -0.41353      1.99943     4.39984    0.01426     6.41353
      H   18    0.19945      0.00000     0.79902    0.00153     0.80055
      H   19    0.23075      0.00000     0.76753    0.00172     0.76925
      C   20   -0.43216      1.99941     4.41816    0.01458     6.43216
      H   21    0.22256      0.00000     0.77581    0.00163     0.77744
      H   22    0.24632      0.00000     0.75216    0.00152     0.75368
      C   23   -0.40391      1.99943     4.39007    0.01441     6.40391
      H   24    0.23125      0.00000     0.76726    0.00149     0.76875
      H   25    0.19440      0.00000     0.80390    0.00170     0.80560
      C   26   -0.40992      1.99943     4.39455    0.01595     6.40992
      H   27    0.19902      0.00000     0.79895    0.00202     0.80098
      H   28    0.21837      0.00000     0.77978    0.00185     0.78163
      C   29   -0.42680      1.99944     4.41186    0.01550     6.42680
      H   30    0.20837      0.00000     0.78979    0.00184     0.79163
      H   31    0.24901      0.00000     0.74936    0.00164     0.75099
      C   32   -0.40768      1.99942     4.39334    0.01492     6.40768
      H   33    0.20703      0.00000     0.79121    0.00176     0.79297
      H   34    0.21218      0.00000     0.78600    0.00182     0.78782
      C   35   -0.40551      1.99942     4.39090    0.01518     6.40551
      H   36    0.19829      0.00000     0.79969    0.00202     0.80171
      H   37    0.21866      0.00000     0.77959    0.00175     0.78134
      C   38   -0.61879      1.99949     4.60793    0.01138     6.61879
      H   39    0.21865      0.00000     0.78041    0.00094     0.78135
      H   40    0.20750      0.00000     0.79053    0.00197     0.79250
      H   41    0.21516      0.00000     0.78358    0.00125     0.78484
      C   42   -0.60804      1.99947     4.59768    0.01089     6.60804
      H   43    0.22770      0.00000     0.77091    0.00139     0.77230
      H   44    0.22557      0.00000     0.77355    0.00088     0.77443
      H   45    0.19671      0.00000     0.80205    0.00124     0.80329
      C   46   -0.61234      1.99946     4.60135    0.01153     6.61234
      H   47    0.22296      0.00000     0.77583    0.00121     0.77704
      H   48    0.23149      0.00000     0.76716    0.00135     0.76851
      H   49    0.21385      0.00000     0.78521    0.00094     0.78615
      C   50   -0.61678      1.99949     4.60585    0.01144     6.61678
      H   51    0.22172      0.00000     0.77714    0.00113     0.77828
      H   52    0.20689      0.00000     0.79120    0.00191     0.79311
      H   53    0.21724      0.00000     0.78183    0.00093     0.78276
      C   54   -0.20615      1.99910     4.18703    0.02002     6.20615
      H   55    0.22205      0.00000     0.77517    0.00277     0.77795
      C   56   -0.19440      1.99921     4.17766    0.01753     6.19440
      H   57    0.22723      0.00000     0.77155    0.00121     0.77277
      C   58   -0.19500      1.99921     4.17828    0.01751     6.19500
      H   59    0.22744      0.00000     0.77135    0.00121     0.77256
      C   60   -0.20484      1.99910     4.18541    0.02033     6.20484
      H   61    0.22253      0.00000     0.77460    0.00287     0.77747
     Cl   62   -0.46177      9.99965     7.45326    0.00887    17.46177
     Pd   63   -0.21525     35.98689    10.20217    0.02619    46.21525
 =======================================================================
   * Total *    0.00000    119.96274   157.40994    0.62732   278.00000

 Normal termination of Gaussian 09 at Sun Dec  5 10:25:50 2021.
