 Gaussian 09, Revision E.01,

 ----------------------------------------------------------------------
 # PBE1PBE gen pseudo=read int=(grid=ultrafine) empiricaldispersion=GD3
 BJ nmr=giao
 ----------------------------------------------------------------------

 --------------------
 SS_Et_DuPhos_2 title
 --------------------
 Symbolic Z-matrix:
 Charge =  0 Multiplicity = 1

 SCF Done:  E(RPBE1PBE) =  -2590.03957062     A.U. after   18 cycles

      1  Cl   Isotropic =  1006.6130   Anisotropy =   508.5532

      2  P    Isotropic =   182.5425   Anisotropy =   148.7236

      3  P    Isotropic =   187.4910   Anisotropy =   151.9118

      4  C    Isotropic =    32.0977   Anisotropy =   179.1031

      5  C    Isotropic =    32.6178   Anisotropy =   177.3374

      6  C    Isotropic =   132.8721   Anisotropy =    20.2272

      7  H    Isotropic =    27.8750   Anisotropy =     4.1670

      8  C    Isotropic =   127.8918   Anisotropy =    25.4015

      9  H    Isotropic =    29.1105   Anisotropy =     4.4565

     10  C    Isotropic =   125.6998   Anisotropy =    21.8934

     11  H    Isotropic =    29.0163   Anisotropy =     5.6002

     12  C    Isotropic =   133.7878   Anisotropy =    21.8894

     13  H    Isotropic =    27.5621   Anisotropy =     4.0252

     14  C    Isotropic =   147.0348   Anisotropy =    34.7094

     15  H    Isotropic =    28.2780   Anisotropy =     6.5916

     16  H    Isotropic =    29.6699   Anisotropy =    11.7988

     17  C    Isotropic =   146.1169   Anisotropy =    30.2802

     18  H    Isotropic =    29.1572   Anisotropy =     9.6573

     19  H    Isotropic =    29.4389   Anisotropy =    11.7024

     20  C    Isotropic =   148.4728   Anisotropy =    24.1513

     21  H    Isotropic =    29.3573   Anisotropy =    11.8932

     22  H    Isotropic =    28.8158   Anisotropy =     5.6938

     23  C    Isotropic =   145.8701   Anisotropy =    23.8367

     24  H    Isotropic =    29.1377   Anisotropy =    11.5037

     25  H    Isotropic =    29.7394   Anisotropy =     8.7279

     26  C    Isotropic =   155.7499   Anisotropy =    23.1331

     27  H    Isotropic =    29.6555   Anisotropy =     5.5269

     28  H    Isotropic =    29.9428   Anisotropy =    11.2940

     29  C    Isotropic =   154.6988   Anisotropy =    24.5164

     30  H    Isotropic =    30.0924   Anisotropy =    11.5146

     31  H    Isotropic =    28.0864   Anisotropy =     4.7273

     32  C    Isotropic =   156.9731   Anisotropy =    19.3959

     33  H    Isotropic =    29.7499   Anisotropy =    11.4702

     34  H    Isotropic =    28.3152   Anisotropy =     6.1142

     35  C    Isotropic =   157.6583   Anisotropy =    22.7350

     36  H    Isotropic =    30.3366   Anisotropy =     5.2543

     37  H    Isotropic =    29.7366   Anisotropy =    11.5126

     38  C    Isotropic =   169.8161   Anisotropy =    17.5268

     39  H    Isotropic =    31.0716   Anisotropy =    12.4579

     40  H    Isotropic =    32.1775   Anisotropy =     9.0541

     41  H    Isotropic =    30.8941   Anisotropy =     7.2686

     42  C    Isotropic =   166.5480   Anisotropy =    14.9941

     43  H    Isotropic =    28.8576   Anisotropy =    11.6459

     44  H    Isotropic =    30.1978   Anisotropy =    11.8453

     45  H    Isotropic =    31.0122   Anisotropy =     7.3981

     46  C    Isotropic =   165.3490   Anisotropy =    19.7802

     47  H    Isotropic =    29.4418   Anisotropy =    10.4417

     48  H    Isotropic =    31.1257   Anisotropy =     6.6371

     49  H    Isotropic =    30.1254   Anisotropy =    11.3734

     50  C    Isotropic =   168.1023   Anisotropy =    19.0336

     51  H    Isotropic =    30.4923   Anisotropy =     6.0430

     52  H    Isotropic =    31.4277   Anisotropy =     8.6773

     53  H    Isotropic =    30.8723   Anisotropy =    11.8354

     54  C    Isotropic =    46.3703   Anisotropy =   183.3107

     55  H    Isotropic =    23.4515   Anisotropy =    11.3362

     56  C    Isotropic =    49.2186   Anisotropy =   190.8144

     57  H    Isotropic =    23.6031   Anisotropy =     5.6555

     58  C    Isotropic =    49.6199   Anisotropy =   190.4600

     59  H    Isotropic =    23.5944   Anisotropy =     5.4139

     60  C    Isotropic =    45.5888   Anisotropy =   184.7538

     61  H    Isotropic =    23.4901   Anisotropy =    11.3994

     62  Cl   Isotropic =   988.6925   Anisotropy =   504.8259

     63  Pd   Isotropic =  -127.6752   Anisotropy =   212.9089

 Normal termination of Gaussian 09 at Sun Dec  5 10:02:10 2021.
 Gaussian 09:  ES64L-G09RevE.01 30-Nov-2015

 ----------------------------------------------------------------------
 # PBE1PBE gen pseudo=read int=(grid=ultrafine) empiricaldispersion=GD3
 BJ pop=nbo guess=read geom=check
 ----------------------------------------------------------------------

 --------------------
 SS_Et_DuPhos_2 title
 --------------------
 Structure from the checkpoint file:  "SS_Et_DuPhos_2_SPE.chk"
 Charge =  0 Multiplicity = 1

                         Standard orientation:
 ---------------------------------------------------------------------
 Center     Atomic      Atomic             Coordinates (Angstroms)
 Number     Number       Type             X           Y           Z
 ---------------------------------------------------------------------
      1         17           0        1.670600   -2.980741   -0.563237
      2         15           0        1.527066    0.208847    0.068973
      3         15           0       -1.615119    0.243366   -0.002795
      4          6           0        0.673272    1.841046    0.245914
      5          6           0       -0.737359    1.862755    0.126781
      6          6           0        2.792652    0.267347   -1.338943
      7          1           0        2.464076   -0.524583   -2.034461
      8          6           0        2.787078    0.165063    1.480761
      9          1           0        2.492290    0.962046    2.189117
     10          6           0       -2.849235    0.387954   -1.421908
     11          1           0       -2.857716    1.466841   -1.680407
     12          6           0       -2.916207    0.178127    1.358410
     13          1           0       -2.945338   -0.905663    1.583847
     14          6           0        4.091426   -0.165405   -0.617864
     15          1           0        4.084762   -1.263200   -0.504431
     16          1           0        4.974420    0.108126   -1.222916
     17          6           0        4.119095    0.500457    0.767662
     18          1           0        4.233944    1.595420    0.655045
     19          1           0        4.973108    0.148562    1.373604
     20          6           0       -4.194829    0.001290   -0.771135
     21          1           0       -5.036220    0.364991   -1.387365
     22          1           0       -4.255667   -1.101221   -0.729039
     23          6           0       -4.230514    0.572262    0.652007
     24          1           0       -5.096714    0.195284    1.224801
     25          1           0       -4.321429    1.676638    0.621847
     26          6           0        2.936371    1.598312   -2.099736
     27          1           0        3.159410    2.426948   -1.403189
     28          1           0        3.837009    1.494507   -2.735440
     29          6           0        2.842884   -1.180355    2.231750
     30          1           0        3.728735   -1.133841    2.894886
     31          1           0        3.013602   -1.999493    1.511984
     32          6           0       -2.511247   -0.435976   -2.671545
     33          1           0       -3.358735   -0.324541   -3.375576
     34          1           0       -2.466633   -1.501082   -2.382234
     35          6           0       -2.618414    0.965847    2.639180
     36          1           0       -2.561262    2.046429    2.408076
     37          1           0       -3.493216    0.842913    3.306625
     38          6           0        1.743713    1.968716   -2.985111
     39          1           0        1.953421    2.888822   -3.556713
     40          1           0        0.831726    2.145466   -2.391751
     41          1           0        1.523423    1.163168   -3.706014
     42          6           0        1.596879   -1.495998    3.058808
     43          1           0        0.713353   -1.619703    2.404954
     44          1           0        1.728404   -2.442258    3.609448
     45          1           0        1.378983   -0.697792    3.791488
     46          6           0       -1.205744   -0.029599   -3.355287
     47          1           0       -0.345449   -0.247999   -2.695770
     48          1           0       -1.186964    1.047252   -3.603422
     49          1           0       -1.055226   -0.598445   -4.288131
     50          6           0       -1.348243    0.521492    3.367832
     51          1           0       -1.360817   -0.563000    3.569177
     52          1           0       -0.448629    0.733495    2.765347
     53          1           0       -1.238170    1.049346    4.330384
     54          6           0        1.365411    3.043121    0.489223
     55          1           0        2.451670    3.033169    0.624003
     56          6           0        0.673149    4.258639    0.563333
     57          1           0        1.222278    5.187137    0.748629
     58          6           0       -0.718895    4.285619    0.396265
     59          1           0       -1.260051    5.235796    0.444308
     60          6           0       -1.421649    3.091631    0.188309
     61          1           0       -2.511553    3.116496    0.083282
     62         17           0       -1.901498   -2.928928   -0.137313
     63         46           0       -0.063833   -1.381281   -0.116425
 ---------------------------------------------------------------------

 SCF Done:  E(RPBE1PBE) =  -2590.03957062     A.U. after    2 cycles

 The electronic state is 1-A.
 Alpha  occ. eigenvalues -- -101.61433-101.61139 -77.26143 -77.25981 -10.28040
 Alpha  occ. eigenvalues --  -10.27915 -10.27229 -10.27205 -10.26993 -10.26936
 Alpha  occ. eigenvalues --  -10.25897 -10.25693 -10.25553 -10.25460 -10.24378
 Alpha  occ. eigenvalues --  -10.24281 -10.24217 -10.24015 -10.23555 -10.23537
 Alpha  occ. eigenvalues --  -10.22373 -10.22355 -10.22304 -10.22168 -10.21297
 Alpha  occ. eigenvalues --  -10.20705  -9.43939  -9.43651  -7.17093  -7.16803
 Alpha  occ. eigenvalues --   -7.16681  -7.16646  -7.16392  -7.16360  -6.65410
 Alpha  occ. eigenvalues --   -6.65268  -4.79020  -4.78920  -4.78881  -4.78770
 Alpha  occ. eigenvalues --   -4.78756  -4.78618  -3.52096  -2.19811  -2.19688
 Alpha  occ. eigenvalues --   -2.16473  -0.91923  -0.87619  -0.87496  -0.82346
 Alpha  occ. eigenvalues --   -0.82159  -0.81366  -0.80782  -0.78628  -0.78173
 Alpha  occ. eigenvalues --   -0.74224  -0.73633  -0.72981  -0.72747  -0.71794
 Alpha  occ. eigenvalues --   -0.70891  -0.67108  -0.66095  -0.64374  -0.64016
 Alpha  occ. eigenvalues --   -0.62625  -0.62173  -0.60006  -0.58566  -0.58066
 Alpha  occ. eigenvalues --   -0.56028  -0.53777  -0.51579  -0.50892  -0.50555
 Alpha  occ. eigenvalues --   -0.49642  -0.49176  -0.48321  -0.47703  -0.46752
 Alpha  occ. eigenvalues --   -0.46216  -0.46035  -0.45170  -0.44787  -0.43903
 Alpha  occ. eigenvalues --   -0.43568  -0.43039  -0.42847  -0.42568  -0.42044
 Alpha  occ. eigenvalues --   -0.41793  -0.41162  -0.39588  -0.38946  -0.38854
 Alpha  occ. eigenvalues --   -0.38332  -0.38155  -0.37784  -0.37264  -0.37080
 Alpha  occ. eigenvalues --   -0.36550  -0.35923  -0.35723  -0.35553  -0.35225
 Alpha  occ. eigenvalues --   -0.35059  -0.34871  -0.34782  -0.34623  -0.34287
 Alpha  occ. eigenvalues --   -0.34056  -0.33657  -0.33287  -0.33117  -0.30971
 Alpha  occ. eigenvalues --   -0.30630  -0.29777  -0.29259  -0.28679  -0.28463
 Alpha  occ. eigenvalues --   -0.25962  -0.25139  -0.24320  -0.23875  -0.23604
 Alpha virt. eigenvalues --   -0.06577  -0.06253  -0.06118   0.00215   0.00346
 Alpha virt. eigenvalues --    0.01838   0.02565   0.02656   0.03504   0.03857
 Alpha virt. eigenvalues --    0.04681   0.05019   0.05242   0.05603   0.06039

 Mulliken charges:
               1
     1  Cl  -0.445045
     2  P    0.133640
     3  P    0.123369
     4  C   -0.100199
     5  C    0.062925
     6  C   -0.091642
     7  H    0.153683
     8  C   -0.090713
     9  H    0.119486
    10  C   -0.136821
    11  H    0.100114
    12  C   -0.118073
    13  H    0.140519
    14  C   -0.197846
    15  H    0.167563
    16  H    0.111102
    17  C   -0.213198
    18  H    0.119069
    19  H    0.117384
    20  C   -0.157721
    21  H    0.114493
    22  H    0.145057
    23  C   -0.187840
    24  H    0.121886
    25  H    0.095406
    26  C   -0.170828
    27  H    0.091313
    28  H    0.113642
    29  C   -0.185598
    30  H    0.101013
    31  H    0.150936
    32  C   -0.149364
    33  H    0.101146
    34  H    0.155199
    35  C   -0.120362
    36  H    0.096435
    37  H    0.112829
    38  C   -0.403149
    39  H    0.127704
    40  H    0.136246
    41  H    0.142963
    42  C   -0.418166
    43  H    0.193430
    44  H    0.134234
    45  H    0.116331
    46  C   -0.416401
    47  H    0.166000
    48  H    0.115239
    49  H    0.135039
    50  C   -0.401300
    51  H    0.149017
    52  H    0.121379
    53  H    0.128497
    54  C   -0.153578
    55  H    0.137242
    56  C   -0.148300
    57  H    0.130464
    58  C   -0.104704
    59  H    0.131310
    60  C   -0.252219
    61  H    0.141827
    62  Cl  -0.445102
    63  Pd   0.153037
 Sum of Mulliken charges =  -0.00000

 Dipole moment (field-independent basis, Debye):
    X=              0.2104    Y=             12.0887    Z=              1.4188  Tot=             12.1734
 Quadrupole moment (field-independent basis, Debye-Ang):
   XX=           -191.4312   YY=           -227.2109   ZZ=           -204.7136
   XY=             -1.2470   XZ=              1.3856   YZ=             -2.8583

 Summary of Natural Population Analysis:

                                       Natural Population
                Natural  -----------------------------------------------
    Atom  No    Charge         Core      Valence    Rydberg      Total
 -----------------------------------------------------------------------
     Cl    1   -0.46341      9.99965     7.45466    0.00910    17.46341
      P    2    1.16062      9.99567     3.78908    0.05464    13.83938
      P    3    1.17792      9.99563     3.77180    0.05465    13.82208
      C    4   -0.34275      1.99895     4.30875    0.03505     6.34275
      C    5   -0.34885      1.99895     4.31433    0.03557     6.34885
      C    6   -0.48946      1.99937     4.46292    0.02717     6.48946
      H    7    0.27098      0.00000     0.72756    0.00146     0.72902
      C    8   -0.48645      1.99939     4.46133    0.02573     6.48645
      H    9    0.23433      0.00000     0.76385    0.00182     0.76567
      C   10   -0.47790      1.99938     4.45215    0.02638     6.47790
      H   11    0.22392      0.00000     0.77406    0.00202     0.77608
      C   12   -0.49908      1.99937     4.47332    0.02639     6.49908
      H   13    0.27102      0.00000     0.72739    0.00159     0.72898
      C   14   -0.42655      1.99942     4.41242    0.01471     6.42655
      H   15    0.24673      0.00000     0.75182    0.00146     0.75327
      H   16    0.22329      0.00000     0.77494    0.00177     0.77671
      C   17   -0.41413      1.99943     4.40038    0.01432     6.41413
      H   18    0.20013      0.00000     0.79832    0.00155     0.79987
      H   19    0.23024      0.00000     0.76802    0.00174     0.76976
      C   20   -0.42111      1.99942     4.40730    0.01439     6.42111
      H   21    0.22310      0.00000     0.77540    0.00150     0.77690
      H   22    0.23923      0.00000     0.75927    0.00150     0.76077
      C   23   -0.40688      1.99942     4.39295    0.01451     6.40688
      H   24    0.23061      0.00000     0.76790    0.00149     0.76939
      H   25    0.19423      0.00000     0.80411    0.00166     0.80577
      C   26   -0.41141      1.99943     4.39560    0.01638     6.41141
      H   27    0.19815      0.00000     0.79977    0.00208     0.80185
      H   28    0.21805      0.00000     0.78008    0.00188     0.78195
      C   29   -0.42660      1.99944     4.41149    0.01567     6.42660
      H   30    0.20839      0.00000     0.78976    0.00185     0.79161
      H   31    0.24855      0.00000     0.74980    0.00165     0.75145
      C   32   -0.42207      1.99943     4.40761    0.01503     6.42207
      H   33    0.20816      0.00000     0.79012    0.00172     0.79184
      H   34    0.25129      0.00000     0.74716    0.00155     0.74871
      C   35   -0.40717      1.99942     4.39228    0.01547     6.40717
      H   36    0.20228      0.00000     0.79565    0.00207     0.79772
      H   37    0.21773      0.00000     0.78050    0.00176     0.78227
      C   38   -0.61807      1.99949     4.60692    0.01166     6.61807
      H   39    0.21704      0.00000     0.78201    0.00095     0.78296
      H   40    0.21052      0.00000     0.78757    0.00192     0.78948
      H   41    0.21549      0.00000     0.78333    0.00118     0.78451
      C   42   -0.60828      1.99947     4.59778    0.01103     6.60828
      H   43    0.22694      0.00000     0.77168    0.00138     0.77306
      H   44    0.22553      0.00000     0.77359    0.00088     0.77447
      H   45    0.19740      0.00000     0.80137    0.00122     0.80260
      C   46   -0.61359      1.99948     4.60331    0.01080     6.61359
      H   47    0.21856      0.00000     0.78010    0.00134     0.78144
      H   48    0.19950      0.00000     0.79924    0.00126     0.80050
      H   49    0.22431      0.00000     0.77484    0.00084     0.77569
      C   50   -0.61650      1.99949     4.60520    0.01181     6.61650
      H   51    0.22085      0.00000     0.77802    0.00113     0.77915
      H   52    0.20723      0.00000     0.79091    0.00186     0.79277
      H   53    0.21745      0.00000     0.78162    0.00092     0.78255
      C   54   -0.20515      1.99910     4.18600    0.02006     6.20515
      H   55    0.22208      0.00000     0.77524    0.00268     0.77792
      C   56   -0.19525      1.99921     4.17850    0.01754     6.19525
      H   57    0.22719      0.00000     0.77159    0.00122     0.77281
      C   58   -0.19522      1.99921     4.17852    0.01749     6.19522
      H   59    0.22728      0.00000     0.77150    0.00122     0.77272
      C   60   -0.20711      1.99910     4.18755    0.02046     6.20711
      H   61    0.22255      0.00000     0.77451    0.00295     0.77745
     Cl   62   -0.45735      9.99965     7.44858    0.00912    17.45735
     Pd   63   -0.19854     35.98671    10.18573    0.02610    46.19854
 =======================================================================
   * Total *   -0.00000    119.96266   157.40903    0.62832   278.00000

 Normal termination of Gaussian 09 at Sun Dec  5 10:06:50 2021.
