 Gaussian 16, Revision B.01,

 ----------------------------------------------------------------------
 # PBE1PBE gen pseudo=read int=(grid=ultrafine) empiricaldispersion=GD3
 BJ nmr=giao
 ----------------------------------------------------------------------

 --------------
 W005_1_4 title
 --------------
 Symbolic Z-matrix:
 Charge =  0 Multiplicity = 1

 SCF Done:  E(RPBE1PBE) =  -5208.95978547     A.U. after   27 cycles

      1  C    Isotropic =   110.8399   Anisotropy =    91.5201

      2  C    Isotropic =   112.0291   Anisotropy =    90.0686

      3  C    Isotropic =   111.8708   Anisotropy =    90.2359

      4  C    Isotropic =   110.2713   Anisotropy =    92.9430

      5  C    Isotropic =   112.9926   Anisotropy =    90.2546

      6  H    Isotropic =    27.3892   Anisotropy =     6.5582

      7  H    Isotropic =    27.4532   Anisotropy =     6.5825

      8  H    Isotropic =    27.3264   Anisotropy =     4.3721

      9  H    Isotropic =    27.0915   Anisotropy =     3.6335

     10  H    Isotropic =    27.2333   Anisotropy =     4.0602

     11  Fe   Isotropic = -6293.0022   Anisotropy =  8474.6326

     12  C    Isotropic =   112.4075   Anisotropy =    91.6342

     13  C    Isotropic =   104.4518   Anisotropy =    84.4435

     14  C    Isotropic =    89.3880   Anisotropy =    96.7365

     15  C    Isotropic =    87.0027   Anisotropy =    99.7726

     16  C    Isotropic =   110.1710   Anisotropy =    97.3739

     17  H    Isotropic =    26.9791   Anisotropy =     7.2881

     18  H    Isotropic =    26.7293   Anisotropy =     3.0183

     19  C    Isotropic =   145.2904   Anisotropy =    29.5677

     20  P    Isotropic =   202.1627   Anisotropy =   175.1101

     21  H    Isotropic =    27.3582   Anisotropy =     5.0731

     22  C    Isotropic =   166.3560   Anisotropy =    15.8530

     23  H    Isotropic =    29.7145   Anisotropy =    10.6854

     24  H    Isotropic =    29.0751   Anisotropy =    10.1984

     25  H    Isotropic =    29.4305   Anisotropy =     3.9916

     26  C    Isotropic =    54.0242   Anisotropy =   191.8433

     27  C    Isotropic =    47.6534   Anisotropy =   160.5323

     28  C    Isotropic =    33.5483   Anisotropy =   207.9147

     29  C    Isotropic =    37.1015   Anisotropy =   187.0647

     30  C    Isotropic =    42.1802   Anisotropy =   194.4047

     31  C    Isotropic =    48.5794   Anisotropy =   159.3729

     32  H    Isotropic =    23.2656   Anisotropy =     9.3297

     33  C    Isotropic =    49.0380   Anisotropy =    14.9025

     34  H    Isotropic =    21.3651   Anisotropy =    17.4981

     35  H    Isotropic =    24.0882   Anisotropy =    15.3560

     36  C    Isotropic =    48.7693   Anisotropy =    13.7198

     37  C    Isotropic =    54.7348   Anisotropy =   193.8141

     38  C    Isotropic =    48.9511   Anisotropy =   161.6263

     39  C    Isotropic =    48.9588   Anisotropy =   201.5361

     40  C    Isotropic =    34.6159   Anisotropy =   197.1203

     41  C    Isotropic =    39.9220   Anisotropy =   209.5122

     42  C    Isotropic =    48.5957   Anisotropy =   166.4138

     43  H    Isotropic =    23.5523   Anisotropy =     8.5647

     44  C    Isotropic =    48.0689   Anisotropy =    15.4446

     45  H    Isotropic =    24.4333   Anisotropy =     8.1864

     46  H    Isotropic =    25.0266   Anisotropy =    14.5891

     47  C    Isotropic =    48.9289   Anisotropy =    12.3011

     48  F    Isotropic =   217.9651   Anisotropy =   146.4264

     49  F    Isotropic =   241.5338   Anisotropy =   130.3426

     50  F    Isotropic =   245.1274   Anisotropy =   135.8152

     51  F    Isotropic =   211.2273   Anisotropy =   139.4469

     52  F    Isotropic =   248.5648   Anisotropy =   118.3271

     53  F    Isotropic =   240.5336   Anisotropy =   145.1945

     54  F    Isotropic =   249.0786   Anisotropy =   140.3393

     55  F    Isotropic =   222.5607   Anisotropy =   144.9692

     56  F    Isotropic =   242.8512   Anisotropy =   139.8628

     57  F    Isotropic =   248.0232   Anisotropy =   137.4829

     58  F    Isotropic =   219.7789   Anisotropy =   148.3692

     59  F    Isotropic =   244.3210   Anisotropy =   140.6314

     60  P    Isotropic =   246.9565   Anisotropy =   116.6395

     61  C    Isotropic =    18.2009   Anisotropy =   129.6459

     62  C    Isotropic =    47.8827   Anisotropy =   169.7740

     63  C    Isotropic =    49.0006   Anisotropy =   154.6891

     64  C    Isotropic =    47.2342   Anisotropy =   167.5169

     65  C    Isotropic =    39.4474   Anisotropy =   173.0984

     66  C    Isotropic =    48.2475   Anisotropy =   171.4816

     67  H    Isotropic =    25.2148   Anisotropy =    15.5052

     68  H    Isotropic =    23.1161   Anisotropy =    11.6002

     69  Cl   Isotropic =   807.2003   Anisotropy =   328.4692

     70  Cl   Isotropic =   897.2643   Anisotropy =   598.6200

     71  H    Isotropic =    27.3485   Anisotropy =     4.0255

     72  C    Isotropic =    52.4053   Anisotropy =   189.2961

     73  C    Isotropic =    48.6738   Anisotropy =   191.7203

     74  C    Isotropic =    41.8539   Anisotropy =   167.5532

     75  C    Isotropic =    36.6726   Anisotropy =   194.1184

     76  C    Isotropic =    39.9301   Anisotropy =   176.8186

     77  C    Isotropic =    42.1322   Anisotropy =   200.6295

     78  H    Isotropic =    23.8082   Anisotropy =     3.7640

     79  H    Isotropic =    23.4401   Anisotropy =     4.3849

     80  H    Isotropic =    22.2992   Anisotropy =     8.2322

     81  H    Isotropic =    23.6240   Anisotropy =     8.7814

     82  C    Isotropic =    17.8338   Anisotropy =   134.6701

     83  C    Isotropic =    43.9879   Anisotropy =   180.1401

     84  C    Isotropic =    40.4456   Anisotropy =   178.2086

     85  C    Isotropic =    55.3859   Anisotropy =   165.8142

     86  C    Isotropic =    49.2387   Anisotropy =   166.2751

     87  C    Isotropic =    48.6066   Anisotropy =   174.8080

     88  H    Isotropic =    22.9031   Anisotropy =    14.5154

     89  H    Isotropic =    25.6055   Anisotropy =     7.8989

     90  Pd   Isotropic =  -174.3856   Anisotropy =   256.3806

     91  C    Isotropic =   167.4672   Anisotropy =    29.5865

     92  H    Isotropic =    30.0115   Anisotropy =     6.2390

     93  H    Isotropic =    28.9286   Anisotropy =     9.3978

     94  H    Isotropic =    29.3587   Anisotropy =     8.9850

     95  C    Isotropic =   169.4590   Anisotropy =    28.3152

     96  H    Isotropic =    29.1715   Anisotropy =     6.1544

     97  H    Isotropic =    29.2834   Anisotropy =     7.3431

     98  H    Isotropic =    28.6860   Anisotropy =     9.0997

     99  O    Isotropic =   255.9816   Anisotropy =   111.7988

    100  C    Isotropic =   126.5128   Anisotropy =    83.4537

    101  H    Isotropic =    27.8538   Anisotropy =     7.4053

    102  H    Isotropic =    28.2712   Anisotropy =     8.3479

    103  H    Isotropic =    27.6779   Anisotropy =    10.6810

    104  C    Isotropic =   169.0330   Anisotropy =    28.8385

    105  H    Isotropic =    29.1823   Anisotropy =     7.4279

    106  H    Isotropic =    28.8243   Anisotropy =     8.9403

    107  H    Isotropic =    29.3348   Anisotropy =     6.7730

    108  C    Isotropic =   167.4254   Anisotropy =    23.5961

    109  H    Isotropic =    29.0460   Anisotropy =     5.1401

    110  H    Isotropic =    28.9717   Anisotropy =    10.8046

    111  H    Isotropic =    29.9867   Anisotropy =     6.6746

    112  O    Isotropic =   254.1545   Anisotropy =   124.7789

    113  C    Isotropic =   125.9990   Anisotropy =    79.8063

    114  H    Isotropic =    27.6439   Anisotropy =    10.0983

    115  H    Isotropic =    27.7500   Anisotropy =     5.8687

    116  H    Isotropic =    27.8188   Anisotropy =     5.8965

 Normal termination of Gaussian 16 at Fri Mar  4 04:40:51 2022.
 Gaussian 16:  ES64L-G16RevB.01 20-Dec-2017

 ----------------------------------------------------------------------
 # PBE1PBE gen pseudo=read int=(grid=ultrafine) empiricaldispersion=GD3
 BJ pop=nbo guess=read geom=check
 ----------------------------------------------------------------------

 --------------
 W005_1_4 title
 --------------
 Structure from the checkpoint file:  "W005_1_4_SPE.chk"
 Charge =  0 Multiplicity = 1

                         Standard orientation:
 ---------------------------------------------------------------------
 Center     Atomic      Atomic             Coordinates (Angstroms)
 Number     Number       Type             X           Y           Z
 ---------------------------------------------------------------------
      1          6           0       -1.903266   -5.937434    1.501382
      2          6           0       -3.091275   -6.127076    0.716876
      3          6           0       -4.140266   -5.338381    1.301033
      4          6           0       -3.603293   -4.663961    2.448621
      5          6           0       -2.217661   -5.030548    2.571881
      6          1           0       -3.166446   -6.717315   -0.197050
      7          1           0       -5.152798   -5.229180    0.910978
      8          1           0       -4.149822   -3.969010    3.086946
      9          1           0       -1.520110   -4.678955    3.333748
     10          1           0       -0.928493   -6.383206    1.301297
     11         26           0       -2.563534   -4.148960    0.748226
     12          6           0       -2.908860   -3.475077   -1.151169
     13          6           0       -3.319919   -2.496378   -0.188779
     14          6           0       -2.172367   -2.132019    0.607182
     15          6           0       -1.050720   -2.925289    0.142887
     16          6           0       -1.516991   -3.734428   -0.953474
     17          1           0       -3.552745   -3.975702   -1.874385
     18          1           0       -0.915819   -4.439603   -1.522939
     19          6           0        0.377750   -2.780988    0.596394
     20         15           0        0.982687   -1.159127   -0.208523
     21          1           0        0.406927   -2.621118    1.689336
     22          6           0        1.241385   -3.991659    0.213247
     23          1           0        2.236934   -3.959213    0.678933
     24          1           0        0.730138   -4.906848    0.555164
     25          1           0        1.371433   -4.050432   -0.879654
     26          6           0        5.386552   -1.530281   -1.701842
     27          6           0        4.397402   -1.020046   -2.550495
     28          6           0        3.058732   -0.950997   -2.134362
     29          6           0        2.703226   -1.392008   -0.849593
     30          6           0        3.702778   -1.867758    0.018369
     31          6           0        5.032543   -1.951988   -0.413164
     32          1           0        6.425453   -1.586676   -2.035149
     33          6           0        4.752404   -0.583682   -3.953457
     34          1           0        2.292347   -0.561633   -2.808031
     35          1           0        3.460396   -2.157895    1.044596
     36          6           0        6.093956   -2.417024    0.552951
     37          6           0        2.416039    1.829893    3.099832
     38          6           0        1.426269    0.893983    3.423895
     39          6           0        0.952641   -0.022523    2.469649
     40          6           0        1.459254    0.006670    1.159026
     41          6           0        2.409334    0.992124    0.822886
     42          6           0        2.896036    1.879137    1.786710
     43          1           0        2.791499    2.523251    3.856005
     44          6           0        0.807977    0.959844    4.797152
     45          1           0        0.183116   -0.740244    2.763450
     46          1           0        2.792289    1.062578   -0.197980
     47          6           0        4.004231    2.828465    1.405028
     48          9           0        5.222699    2.239073    1.519500
     49          9           0        3.878682    3.249516    0.117244
     50          9           0        4.023445    3.939423    2.202040
     51          9           0       -0.137659    1.951780    4.848334
     52          9           0        0.196858   -0.199587    5.150264
     53          9           0        1.729789    1.251474    5.752307
     54          9           0        6.068260   -0.243143   -4.051526
     55          9           0        4.523185   -1.575765   -4.851604
     56          9           0        4.016716    0.492283   -4.336770
     57          9           0        7.158433   -2.963336   -0.089843
     58          9           0        6.562691   -1.383946    1.307426
     59          9           0        5.604040   -3.350222    1.417184
     60         15           0       -1.719326    0.947896   -0.373735
     61          6           0       -5.959355    2.343780   -1.561958
     62          6           0       -5.074035    3.282794   -0.991912
     63          6           0       -3.770135    2.864751   -0.681984
     64          6           0       -3.361349    1.544067   -0.935254
     65          6           0       -4.254203    0.635726   -1.526552
     66          6           0       -5.563964    1.018525   -1.849917
     67          1           0       -3.067550    3.587870   -0.254288
     68          1           0       -3.908260   -0.368396   -1.787930
     69         17           0       -1.795586    0.344775   -3.610484
     70         17           0        0.377334   -2.215293   -3.143493
     71          1           0       -4.327201   -2.105463   -0.042555
     72          6           0       -2.785646    0.886432    3.611849
     73          6           0       -2.691892   -0.461935    3.975179
     74          6           0       -2.436507   -1.423340    2.991425
     75          6           0       -2.207308   -1.069650    1.645727
     76          6           0       -2.161685    0.312688    1.311938
     77          6           0       -2.530010    1.262153    2.289056
     78          1           0       -3.042739    1.648226    4.353675
     79          1           0       -2.853513   -0.769701    5.012921
     80          1           0       -2.440021   -2.486009    3.238653
     81          1           0       -2.621780    2.314584    2.008298
     82          6           0        0.618852    4.936278   -0.077456
     83          6           0        0.226763    4.403234   -1.328432
     84          6           0       -0.452140    3.175147   -1.343863
     85          6           0       -0.739088    2.484409   -0.147505
     86          6           0       -0.306135    3.021309    1.076942
     87          6           0        0.361541    4.255551    1.131196
     88          1           0       -0.783337    2.754943   -2.302641
     89          1           0       -0.481624    2.492537    2.016312
     90         46           0       -0.557707   -0.470647   -1.764133
     91          6           0       -5.524631    4.703070   -0.752537
     92          1           0       -4.684249    5.328714   -0.410902
     93          1           0       -5.942213    5.146264   -1.672095
     94          1           0       -6.320412    4.757295    0.012585
     95          6           0       -6.502168    0.056411   -2.536746
     96          1           0       -5.936147   -0.657810   -3.156811
     97          1           0       -7.094829   -0.532339   -1.810811
     98          1           0       -7.213446    0.598181   -3.180614
     99          8           0       -7.228457    2.782440   -1.916989
    100          6           0       -8.238232    2.426547   -0.966171
    101          1           0       -8.344888    1.329092   -0.871046
    102          1           0       -8.017206    2.849930    0.032885
    103          1           0       -9.181485    2.851333   -1.342615
    104          6           0        0.486366    5.155667   -2.610333
    105          1           0        1.485188    4.922332   -3.023856
    106          1           0        0.445461    6.243827   -2.440164
    107          1           0       -0.253524    4.883797   -3.379972
    108          6           0        0.753912    4.865478    2.455277
    109          1           0        1.844786    5.004766    2.534183
    110          1           0        0.296990    5.861878    2.581099
    111          1           0        0.432048    4.221464    3.290247
    112          8           0        1.183979    6.199017   -0.006453
    113          6           0        2.590656    6.243601   -0.291007
    114          1           0        2.869928    7.307928   -0.271661
    115          1           0        3.171718    5.693895    0.469418
    116          1           0        2.820878    5.822882   -1.287087
 ---------------------------------------------------------------------

 SCF Done:  E(RPBE1PBE) =  -5208.95978547     A.U. after    1 cycles

 The electronic state is 1-A.
 Alpha  occ. eigenvalues -- -101.62644-101.61985 -77.28502 -77.27383 -24.82940
 Alpha  occ. eigenvalues --  -24.82776 -24.82696 -24.82629 -24.82398 -24.82240
 Alpha  occ. eigenvalues --  -24.81823 -24.81799 -24.81384 -24.80867 -24.80649
 Alpha  occ. eigenvalues --  -24.80324 -19.23589 -19.23201 -10.50444 -10.50326
 Alpha  occ. eigenvalues --  -10.49424 -10.48465 -10.29872 -10.29722 -10.29559
 Alpha  occ. eigenvalues --  -10.29478 -10.29211 -10.29137 -10.28915 -10.28823
 Alpha  occ. eigenvalues --  -10.28663 -10.28620 -10.28534 -10.28432 -10.28421
 Alpha  occ. eigenvalues --  -10.28205 -10.27957 -10.27843 -10.27753 -10.27553
 Alpha  occ. eigenvalues --  -10.27496 -10.26415 -10.26363 -10.26213 -10.26023
 Alpha  occ. eigenvalues --  -10.25952 -10.25735 -10.25547 -10.25433 -10.25367
 Alpha  occ. eigenvalues --  -10.25218 -10.25107 -10.25102 -10.25096 -10.25045
 Alpha  occ. eigenvalues --  -10.25017 -10.24968 -10.24807 -10.24694 -10.24616
 Alpha  occ. eigenvalues --  -10.24539 -10.24494 -10.24384 -10.24058 -10.23999
 Alpha  occ. eigenvalues --  -10.23553 -10.23243 -10.22733 -10.22657 -10.22455
 Alpha  occ. eigenvalues --   -9.45168  -9.44491  -7.18346  -7.17888  -7.17863
 Alpha  occ. eigenvalues --   -7.17700  -7.17222  -7.17149  -6.67680  -6.66545
 Alpha  occ. eigenvalues --   -4.81301  -4.81220  -4.80995  -4.80143  -4.80099
 Alpha  occ. eigenvalues --   -4.79907  -3.61415  -3.52829  -2.26028  -2.21688
 Alpha  occ. eigenvalues --   -2.21634  -2.20654  -2.20468  -2.16995  -1.36249
 Alpha  occ. eigenvalues --   -1.36137  -1.35279  -1.34278  -1.28072  -1.27835
 Alpha  occ. eigenvalues --   -1.27494  -1.27492  -1.27020  -1.26596  -1.25962
 Alpha  occ. eigenvalues --   -1.25615  -1.08864  -1.08515  -0.94756  -0.93762
 Alpha  occ. eigenvalues --   -0.93515  -0.91721  -0.90711  -0.89772  -0.88873
 Alpha  occ. eigenvalues --   -0.86225  -0.86008  -0.84911  -0.83344  -0.82521
 Alpha  occ. eigenvalues --   -0.82316  -0.82073  -0.81483  -0.81327  -0.79215
 Alpha  occ. eigenvalues --   -0.78735  -0.76307  -0.75602  -0.75496  -0.74971
 Alpha  occ. eigenvalues --   -0.74651  -0.74618  -0.74397  -0.74298  -0.74167
 Alpha  occ. eigenvalues --   -0.73970  -0.73765  -0.73688  -0.72296  -0.71776
 Alpha  occ. eigenvalues --   -0.71112  -0.70763  -0.69555  -0.68643  -0.67956
 Alpha  occ. eigenvalues --   -0.67600  -0.67267  -0.66909  -0.65357  -0.64654
 Alpha  occ. eigenvalues --   -0.63696  -0.63527  -0.63266  -0.63176  -0.63041
 Alpha  occ. eigenvalues --   -0.62386  -0.62217  -0.62016  -0.61250  -0.61200
 Alpha  occ. eigenvalues --   -0.61164  -0.60963  -0.60479  -0.58790  -0.58198
 Alpha  occ. eigenvalues --   -0.57871  -0.57518  -0.57315  -0.57161  -0.56486
 Alpha  occ. eigenvalues --   -0.56313  -0.55947  -0.55753  -0.54637  -0.54382
 Alpha  occ. eigenvalues --   -0.54069  -0.53795  -0.53121  -0.52699  -0.52095
 Alpha  occ. eigenvalues --   -0.51868  -0.51777  -0.51221  -0.51016  -0.50935
 Alpha  occ. eigenvalues --   -0.50636  -0.50256  -0.50055  -0.49782  -0.49569
 Alpha  occ. eigenvalues --   -0.49071  -0.48960  -0.48691  -0.48615  -0.48407
 Alpha  occ. eigenvalues --   -0.48213  -0.47868  -0.47493  -0.47374  -0.47134
 Alpha  occ. eigenvalues --   -0.46998  -0.46692  -0.46320  -0.46047  -0.45915
 Alpha  occ. eigenvalues --   -0.45755  -0.45598  -0.45531  -0.45447  -0.45417
 Alpha  occ. eigenvalues --   -0.45310  -0.45204  -0.45130  -0.44977  -0.44732
 Alpha  occ. eigenvalues --   -0.44514  -0.44423  -0.44363  -0.44110  -0.44064
 Alpha  occ. eigenvalues --   -0.43922  -0.43827  -0.43543  -0.43443  -0.43318
 Alpha  occ. eigenvalues --   -0.43245  -0.43190  -0.43135  -0.42913  -0.42899
 Alpha  occ. eigenvalues --   -0.42848  -0.42466  -0.42288  -0.41961  -0.41755
 Alpha  occ. eigenvalues --   -0.41718  -0.41249  -0.40991  -0.40529  -0.40492
 Alpha  occ. eigenvalues --   -0.40468  -0.40424  -0.39705  -0.39647  -0.39362
 Alpha  occ. eigenvalues --   -0.39287  -0.39016  -0.38796  -0.38669  -0.38359
 Alpha  occ. eigenvalues --   -0.38237  -0.38056  -0.37833  -0.37401  -0.37106
 Alpha  occ. eigenvalues --   -0.36681  -0.36354  -0.36050  -0.35677  -0.35243
 Alpha  occ. eigenvalues --   -0.34128  -0.33332  -0.32567  -0.32485  -0.32043
 Alpha  occ. eigenvalues --   -0.31355  -0.30758  -0.30531  -0.30081  -0.29663
 Alpha  occ. eigenvalues --   -0.29537  -0.29496  -0.29203  -0.28846  -0.28718
 Alpha  occ. eigenvalues --   -0.27770  -0.27523  -0.27073  -0.26836  -0.26415
 Alpha  occ. eigenvalues --   -0.26174  -0.26144  -0.25718  -0.25279  -0.24936
 Alpha  occ. eigenvalues --   -0.24162  -0.23741  -0.23404  -0.23352
 Alpha virt. eigenvalues --   -0.09334  -0.08095  -0.07290  -0.06785  -0.05831
 Alpha virt. eigenvalues --   -0.05692  -0.04268  -0.03512  -0.02676  -0.02234
 Alpha virt. eigenvalues --   -0.01334  -0.01199  -0.01156  -0.00739   0.00194

 Mulliken charges:
               1
     1  C   -0.049204
     2  C   -0.049447
     3  C    0.025294
     4  C   -0.112863
     5  C   -0.142486
     6  H    0.127649
     7  H    0.123506
     8  H    0.132278
     9  H    0.128132
    10  H    0.127565
    11  Fe  -0.451378
    12  C   -0.049718
    13  C   -0.149957
    14  C    0.398629
    15  C    0.204907
    16  C   -0.098549
    17  H    0.117180
    18  H    0.141589
    19  C   -0.147333
    20  P    0.165904
    21  H    0.118944
    22  C   -0.411688
    23  H    0.131681
    24  H    0.137622
    25  H    0.174772
    26  C   -0.267141
    27  C    0.113245
    28  C   -0.250056
    29  C    0.036344
    30  C   -0.294194
    31  C    0.119546
    32  H    0.169368
    33  C    0.435577
    34  H    0.207105
    35  H    0.177783
    36  C    0.434061
    37  C   -0.264266
    38  C   -0.003152
    39  C   -0.199284
    40  C    0.079052
    41  C   -0.209958
    42  C    0.094354
    43  H    0.164233
    44  C    0.471742
    45  H    0.204352
    46  H    0.179145
    47  C    0.458896
    48  F   -0.147280
    49  F   -0.168398
    50  F   -0.176447
    51  F   -0.168611
    52  F   -0.162831
    53  F   -0.157135
    54  F   -0.166637
    55  F   -0.148761
    56  F   -0.158557
    57  F   -0.159332
    58  F   -0.156078
    59  F   -0.166696
    60  P    0.092502
    61  C    0.197330
    62  C    0.076382
    63  C   -0.343642
    64  C    0.209385
    65  C   -0.396469
    66  C    0.136024
    67  H    0.152216
    68  H    0.225329
    69  Cl  -0.401142
    70  Cl  -0.407352
    71  H    0.143718
    72  C   -0.119621
    73  C   -0.144912
    74  C   -0.171420
    75  C   -0.237861
    76  C    0.031023
    77  C   -0.207506
    78  H    0.124232
    79  H    0.123347
    80  H    0.108783
    81  H    0.168489
    82  C    0.252136
    83  C    0.091556
    84  C   -0.321755
    85  C    0.016524
    86  C   -0.211123
    87  C   -0.019400
    88  H    0.165963
    89  H    0.198116
    90  Pd   0.222124
    91  C   -0.411769
    92  H    0.131992
    93  H    0.149321
    94  H    0.122733
    95  C   -0.485833
    96  H    0.160075
    97  H    0.133630
    98  H    0.163977
    99  O   -0.284517
   100  C   -0.216952
   101  H    0.121476
   102  H    0.118719
   103  H    0.140248
   104  C   -0.461153
   105  H    0.147749
   106  H    0.160394
   107  H    0.154853
   108  C   -0.408653
   109  H    0.126512
   110  H    0.151554
   111  H    0.135562
   112  O   -0.286853
   113  C   -0.208211
   114  H    0.140188
   115  H    0.118170
   116  H    0.120797
 Sum of Mulliken charges =  -0.00000

 Dipole moment (field-independent basis, Debye):
    X=             -3.9585    Y=              0.9702    Z=              8.8050  Tot=              9.7025
 Quadrupole moment (field-independent basis, Debye-Ang):
   XX=           -444.1143   YY=           -444.1186   ZZ=           -498.4289
   XY=              8.6077   XZ=             -9.6574   YZ=             -2.0881

 Summary of Natural Population Analysis:

                                       Natural Population
                Natural  -----------------------------------------------
    Atom  No    Charge         Core      Valence    Rydberg      Total
 -----------------------------------------------------------------------
      C    1   -0.20602      1.99876     4.18179    0.02547     6.20602
      C    2   -0.20202      1.99877     4.17785    0.02540     6.20202
      C    3   -0.20446      1.99877     4.18018    0.02550     6.20446
      C    4   -0.21520      1.99877     4.19114    0.02529     6.21520
      C    5   -0.22217      1.99875     4.19858    0.02484     6.22217
      H    6    0.24968      0.00000     0.74900    0.00132     0.75032
      H    7    0.24852      0.00000     0.75017    0.00131     0.75148
      H    8    0.24725      0.00000     0.75142    0.00133     0.75275
      H    9    0.24351      0.00000     0.75519    0.00131     0.75649
      H   10    0.24463      0.00000     0.75392    0.00145     0.75537
     Fe   11   -0.30202     17.99229     8.27148    0.03825    26.30202
      C   12   -0.18758      1.99878     4.16639    0.02240     6.18758
      C   13   -0.19846      1.99871     4.17630    0.02346     6.19846
      C   14   -0.05804      1.99861     4.02516    0.03426     6.05804
      C   15   -0.02115      1.99861     3.98467    0.03787     6.02115
      C   16   -0.17580      1.99870     4.15228    0.02482     6.17580
      H   17    0.25075      0.00000     0.74790    0.00135     0.74925
      H   18    0.26418      0.00000     0.73406    0.00176     0.73582
      C   19   -0.48897      1.99923     4.46118    0.02856     6.48897
      P   20    1.16614      9.99565     3.78856    0.04965    13.83386
      H   21    0.24370      0.00000     0.75419    0.00211     0.75630
      C   22   -0.62532      1.99944     4.61229    0.01359     6.62532
      H   23    0.22068      0.00000     0.77836    0.00096     0.77932
      H   24    0.23053      0.00000     0.76815    0.00132     0.76947
      H   25    0.24440      0.00000     0.75444    0.00116     0.75560
      C   26   -0.13680      1.99907     4.12156    0.01617     6.13680
      C   27   -0.14913      1.99898     4.12545    0.02470     6.14913
      C   28   -0.13223      1.99903     4.11458    0.01863     6.13223
      C   29   -0.34018      1.99901     4.30646    0.03472     6.34018
      C   30   -0.16304      1.99902     4.14380    0.02022     6.16304
      C   31   -0.15714      1.99897     4.13286    0.02531     6.15714
      H   32    0.25637      0.00000     0.74231    0.00132     0.74363
      C   33    0.95048      1.99914     3.00261    0.04777     5.04952
      H   34    0.28002      0.00000     0.71848    0.00149     0.71998
      H   35    0.23730      0.00000     0.76061    0.00208     0.76270
      C   36    0.95128      1.99912     3.00229    0.04731     5.04872
      C   37   -0.14317      1.99906     4.12797    0.01615     6.14317
      C   38   -0.15367      1.99896     4.12982    0.02488     6.15367
      C   39   -0.17040      1.99901     4.15203    0.01935     6.17040
      C   40   -0.34190      1.99902     4.30823    0.03465     6.34190
      C   41   -0.14217      1.99902     4.12380    0.01935     6.14217
      C   42   -0.14754      1.99894     4.12296    0.02565     6.14754
      H   43    0.25656      0.00000     0.74207    0.00136     0.74344
      C   44    0.95168      1.99910     3.00159    0.04764     5.04832
      H   45    0.25450      0.00000     0.74346    0.00204     0.74550
      H   46    0.25183      0.00000     0.74576    0.00241     0.74817
      C   47    0.95217      1.99910     3.00145    0.04728     5.04783
      F   48   -0.30340      1.99992     7.29549    0.00799     9.30340
      F   49   -0.31017      1.99992     7.30187    0.00838     9.31017
      F   50   -0.31917      1.99993     7.31089    0.00836     9.31917
      F   51   -0.31898      1.99993     7.31077    0.00828     9.31898
      F   52   -0.30783      1.99992     7.29972    0.00818     9.30783
      F   53   -0.30840      1.99992     7.30042    0.00806     9.30840
      F   54   -0.31460      1.99993     7.30622    0.00845     9.31460
      F   55   -0.30258      1.99992     7.29415    0.00851     9.30258
      F   56   -0.30666      1.99992     7.29814    0.00860     9.30666
      F   57   -0.30793      1.99992     7.29950    0.00851     9.30793
      F   58   -0.30986      1.99992     7.30160    0.00833     9.30986
      F   59   -0.31480      1.99993     7.30663    0.00824     9.31480
      P   60    1.19640      9.99552     3.75439    0.05368    13.80360
      C   61    0.28828      1.99864     3.69268    0.02041     5.71172
      C   62   -0.05124      1.99904     4.03398    0.01821     6.05124
      C   63   -0.20482      1.99902     4.18714    0.01866     6.20482
      C   64   -0.34195      1.99899     4.31055    0.03241     6.34195
      C   65   -0.17261      1.99901     4.15454    0.01906     6.17261
      C   66   -0.05232      1.99903     4.03591    0.01738     6.05232
      H   67    0.22464      0.00000     0.77288    0.00249     0.77536
      H   68    0.24236      0.00000     0.75545    0.00220     0.75764
     Cl   69   -0.40221      9.99965     7.39420    0.00835    17.40221
     Cl   70   -0.42843      9.99964     7.42042    0.00837    17.42843
      H   71    0.25357      0.00000     0.74463    0.00181     0.74643
      C   72   -0.20597      1.99919     4.18952    0.01726     6.20597
      C   73   -0.18981      1.99920     4.17312    0.01749     6.18981
      C   74   -0.21477      1.99909     4.19786    0.01782     6.21477
      C   75   -0.03076      1.99893     4.00679    0.02504     6.03076
      C   76   -0.32462      1.99892     4.29246    0.03325     6.32462
      C   77   -0.20132      1.99911     4.18191    0.02030     6.20132
      H   78    0.22909      0.00000     0.76974    0.00117     0.77091
      H   79    0.22690      0.00000     0.77188    0.00122     0.77310
      H   80    0.23203      0.00000     0.76573    0.00224     0.76797
      H   81    0.23580      0.00000     0.76227    0.00194     0.76420
      C   82    0.29154      1.99863     3.68996    0.01987     5.70846
      C   83   -0.04498      1.99904     4.02847    0.01747     6.04498
      C   84   -0.19432      1.99904     4.17709    0.01820     6.19432
      C   85   -0.36791      1.99902     4.33783    0.03106     6.36791
      C   86   -0.21808      1.99902     4.19896    0.02010     6.21808
      C   87   -0.05423      1.99901     4.03618    0.01904     6.05423
      H   88    0.25514      0.00000     0.74291    0.00195     0.74486
      H   89    0.23121      0.00000     0.76638    0.00241     0.76879
     Pd   90   -0.14638     35.98846    10.12685    0.03106    46.14638
      C   91   -0.63329      1.99943     4.62196    0.01189     6.63329
      H   92    0.21921      0.00000     0.77996    0.00083     0.78079
      H   93    0.23648      0.00000     0.76230    0.00122     0.76352
      H   94    0.22055      0.00000     0.77817    0.00128     0.77945
      C   95   -0.64605      1.99943     4.63380    0.01282     6.64605
      H   96    0.23394      0.00000     0.76507    0.00098     0.76606
      H   97    0.21732      0.00000     0.78125    0.00143     0.78268
      H   98    0.23702      0.00000     0.76173    0.00125     0.76298
      O   99   -0.49534      1.99977     6.46912    0.02644     8.49534
      C  100   -0.26479      1.99930     4.25281    0.01268     6.26479
      H  101    0.17349      0.00000     0.82435    0.00216     0.82651
      H  102    0.17186      0.00000     0.82599    0.00214     0.82814
      H  103    0.19716      0.00000     0.80146    0.00139     0.80284
      C  104   -0.64586      1.99943     4.63449    0.01194     6.64586
      H  105    0.22719      0.00000     0.77148    0.00133     0.77281
      H  106    0.23478      0.00000     0.76403    0.00119     0.76522
      H  107    0.23383      0.00000     0.76525    0.00091     0.76617
      C  108   -0.64483      1.99943     4.63207    0.01333     6.64483
      H  109    0.23060      0.00000     0.76825    0.00116     0.76940
      H  110    0.23752      0.00000     0.76118    0.00129     0.76248
      H  111    0.22064      0.00000     0.77846    0.00090     0.77936
      O  112   -0.49711      1.99977     6.47175    0.02559     8.49711
      C  113   -0.26624      1.99929     4.25456    0.01238     6.26624
      H  114    0.19659      0.00000     0.80207    0.00134     0.80341
      H  115    0.18097      0.00000     0.81726    0.00177     0.81903
      H  116    0.17690      0.00000     0.82099    0.00211     0.82310
 =======================================================================
   * Total *   -0.00000    225.91853   388.43269    1.64878   616.00000

 Normal termination of Gaussian 16 at Fri Mar  4 04:47:13 2022.
