 Gaussian 16, Revision B.01,

 ----------------------------------------------------------------------
 # PBE1PBE gen pseudo=read int=(grid=ultrafine) empiricaldispersion=GD3
 BJ nmr=giao
 ----------------------------------------------------------------------

 --------------
 W005_1_1 title
 --------------
 Symbolic Z-matrix:
 Charge =  0 Multiplicity = 1

 SCF Done:  E(RPBE1PBE) =  -4160.77687381     A.U. after   22 cycles

      1  C    Isotropic =   112.3141   Anisotropy =    87.9497

      2  C    Isotropic =   112.7950   Anisotropy =    88.1919

      3  C    Isotropic =   111.7437   Anisotropy =    90.3486

      4  C    Isotropic =   110.0989   Anisotropy =    92.5924

      5  C    Isotropic =   112.3792   Anisotropy =    90.6167

      6  H    Isotropic =    27.4959   Anisotropy =     7.1744

      7  H    Isotropic =    27.4778   Anisotropy =     6.5729

      8  H    Isotropic =    27.1835   Anisotropy =     4.0644

      9  H    Isotropic =    27.0860   Anisotropy =     4.1064

     10  H    Isotropic =    27.3122   Anisotropy =     4.9754

     11  Fe   Isotropic = -6174.9736   Anisotropy =  8290.7086

     12  C    Isotropic =   114.4918   Anisotropy =    87.5497

     13  C    Isotropic =   107.1466   Anisotropy =    89.2991

     14  C    Isotropic =    91.2052   Anisotropy =    94.6540

     15  C    Isotropic =    87.2962   Anisotropy =    88.4549

     16  C    Isotropic =   116.8540   Anisotropy =    90.6826

     17  H    Isotropic =    27.7573   Anisotropy =     7.4121

     18  H    Isotropic =    27.6967   Anisotropy =     4.2279

     19  C    Isotropic =   155.8633   Anisotropy =    20.1121

     20  P    Isotropic =   292.7226   Anisotropy =   116.3234

     21  H    Isotropic =    27.2740   Anisotropy =     5.0121

     22  C    Isotropic =   170.3053   Anisotropy =    12.4939

     23  H    Isotropic =    29.7669   Anisotropy =    10.5457

     24  H    Isotropic =    29.2566   Anisotropy =     8.9841

     25  H    Isotropic =    30.2460   Anisotropy =     6.9604

     26  C    Isotropic =    55.0730   Anisotropy =   190.5504

     27  C    Isotropic =    46.6498   Anisotropy =   161.9888

     28  C    Isotropic =    43.2160   Anisotropy =   182.5667

     29  C    Isotropic =    34.7104   Anisotropy =   209.5198

     30  C    Isotropic =    38.3228   Anisotropy =   195.6826

     31  C    Isotropic =    46.4527   Anisotropy =   161.9814

     32  H    Isotropic =    23.3641   Anisotropy =    10.0175

     33  C    Isotropic =    48.3767   Anisotropy =    14.6525

     34  H    Isotropic =    22.5637   Anisotropy =    12.8146

     35  H    Isotropic =    23.6342   Anisotropy =    15.6709

     36  C    Isotropic =    48.8625   Anisotropy =    14.5443

     37  C    Isotropic =    58.3373   Anisotropy =   187.3072

     38  C    Isotropic =    46.9204   Anisotropy =   167.5280

     39  C    Isotropic =    55.0409   Anisotropy =   199.6816

     40  C    Isotropic =    31.7023   Anisotropy =   221.6626

     41  C    Isotropic =    47.2486   Anisotropy =   194.7417

     42  C    Isotropic =    49.5758   Anisotropy =   161.6132

     43  H    Isotropic =    24.0682   Anisotropy =     9.5866

     44  C    Isotropic =    48.3653   Anisotropy =    12.3459

     45  H    Isotropic =    23.9031   Anisotropy =     9.5345

     46  H    Isotropic =    24.0509   Anisotropy =     8.0669

     47  C    Isotropic =    48.8358   Anisotropy =    14.0796

     48  F    Isotropic =   249.7476   Anisotropy =   135.8782

     49  F    Isotropic =   240.7651   Anisotropy =   128.0202

     50  F    Isotropic =   215.7447   Anisotropy =   145.7303

     51  F    Isotropic =   255.3375   Anisotropy =   118.1076

     52  F    Isotropic =   226.9660   Anisotropy =   151.4269

     53  F    Isotropic =   226.8338   Anisotropy =   151.9713

     54  F    Isotropic =   243.6074   Anisotropy =   140.7078

     55  F    Isotropic =   244.4931   Anisotropy =   141.6290

     56  F    Isotropic =   222.6172   Anisotropy =   142.7207

     57  F    Isotropic =   218.9621   Anisotropy =   148.5102

     58  F    Isotropic =   245.1570   Anisotropy =   139.1628

     59  F    Isotropic =   248.1292   Anisotropy =   138.6495

     60  P    Isotropic =   304.8875   Anisotropy =    19.6218

     61  C    Isotropic =    22.0192   Anisotropy =   124.5464

     62  C    Isotropic =    48.1822   Anisotropy =   173.3152

     63  C    Isotropic =    47.7447   Anisotropy =   160.0409

     64  C    Isotropic =    38.8022   Anisotropy =   195.1056

     65  C    Isotropic =    46.7651   Anisotropy =   156.8770

     66  C    Isotropic =    48.7060   Anisotropy =   169.8065

     67  H    Isotropic =    24.5792   Anisotropy =    13.2203

     68  H    Isotropic =    25.0347   Anisotropy =    16.4736

     69  H    Isotropic =    27.3671   Anisotropy =     7.5066

     70  C    Isotropic =    48.8694   Anisotropy =   199.0360

     71  C    Isotropic =    51.7185   Anisotropy =   190.5694

     72  C    Isotropic =    45.2576   Anisotropy =   169.4872

     73  C    Isotropic =    39.6603   Anisotropy =   191.9881

     74  C    Isotropic =    37.4371   Anisotropy =   204.4968

     75  C    Isotropic =    45.9830   Anisotropy =   203.8715

     76  H    Isotropic =    24.6201   Anisotropy =     3.9871

     77  H    Isotropic =    23.7430   Anisotropy =     3.4354

     78  H    Isotropic =    22.8010   Anisotropy =     7.4986

     79  H    Isotropic =    24.7726   Anisotropy =     7.4829

     80  C    Isotropic =    17.5221   Anisotropy =   135.8534

     81  C    Isotropic =    45.9220   Anisotropy =   176.1413

     82  C    Isotropic =    40.2319   Anisotropy =   150.8473

     83  C    Isotropic =    45.9162   Anisotropy =   189.9378

     84  C    Isotropic =    38.4226   Anisotropy =   169.3955

     85  C    Isotropic =    44.9480   Anisotropy =   177.9317

     86  H    Isotropic =    22.9745   Anisotropy =     9.7174

     87  H    Isotropic =    24.4631   Anisotropy =    12.5473

     88  C    Isotropic =   169.4369   Anisotropy =    29.3099

     89  H    Isotropic =    29.5816   Anisotropy =     7.3076

     90  H    Isotropic =    28.8302   Anisotropy =     8.0031

     91  H    Isotropic =    29.3952   Anisotropy =     8.3385

     92  C    Isotropic =   167.4293   Anisotropy =    27.7954

     93  H    Isotropic =    29.8608   Anisotropy =     6.9699

     94  H    Isotropic =    29.2391   Anisotropy =     8.9006

     95  H    Isotropic =    28.8488   Anisotropy =     8.4750

     96  O    Isotropic =   260.8775   Anisotropy =   106.8996

     97  C    Isotropic =   126.4255   Anisotropy =    84.5927

     98  H    Isotropic =    28.1752   Anisotropy =     8.4848

     99  H    Isotropic =    27.8192   Anisotropy =     7.9875

    100  H    Isotropic =    27.6982   Anisotropy =    10.5973

    101  C    Isotropic =   167.0006   Anisotropy =    27.9250

    102  H    Isotropic =    29.1652   Anisotropy =    10.1071

    103  H    Isotropic =    28.9501   Anisotropy =     5.1275

    104  H    Isotropic =    28.6686   Anisotropy =     9.6826

    105  C    Isotropic =   169.3130   Anisotropy =    29.8583

    106  H    Isotropic =    28.7068   Anisotropy =     8.3868

    107  H    Isotropic =    29.7593   Anisotropy =     7.6645

    108  H    Isotropic =    29.2247   Anisotropy =     7.5282

    109  O    Isotropic =   255.4572   Anisotropy =   117.3230

    110  C    Isotropic =   126.2607   Anisotropy =    78.6778

    111  H    Isotropic =    27.7246   Anisotropy =     6.5476

    112  H    Isotropic =    27.6416   Anisotropy =     5.4191

    113  H    Isotropic =    27.6183   Anisotropy =    10.0529

 Normal termination of Gaussian 16 at Fri Mar  4 02:29:13 2022.
 Gaussian 16:  ES64L-G16RevB.01 20-Dec-2017

 ----------------------------------------------------------------------
 # PBE1PBE gen pseudo=read int=(grid=ultrafine) empiricaldispersion=GD3
 BJ pop=nbo guess=read geom=check
 ----------------------------------------------------------------------

 --------------
 W005_1_1 title
 --------------
 Structure from the checkpoint file:  "W005_1_1_SPE_NoPd.chk"
 Charge =  0 Multiplicity = 1

                         Standard orientation:
 ---------------------------------------------------------------------
 Center     Atomic      Atomic             Coordinates (Angstroms)
 Number     Number       Type             X           Y           Z
 ---------------------------------------------------------------------
      1          6           0       -1.780247   -6.153597   -0.820554
      2          6           0       -3.104672   -6.051021   -1.369698
      3          6           0       -3.954760   -5.459670   -0.374321
      4          6           0       -3.158763   -5.199415    0.791574
      5          6           0       -1.811973   -5.624972    0.516963
      6          1           0       -3.398102   -6.319086   -2.385206
      7          1           0       -5.007643   -5.204891   -0.499698
      8          1           0       -3.517291   -4.732226    1.709401
      9          1           0       -0.959853   -5.547521    1.194225
     10          1           0       -0.900627   -6.532969   -1.341806
     11         26           0       -2.397430   -4.205984   -0.838828
     12          6           0       -2.862476   -3.001398   -2.433757
     13          6           0       -3.194979   -2.355907   -1.199910
     14          6           0       -1.996018   -2.250254   -0.403676
     15          6           0       -0.914210   -2.860789   -1.168836
     16          6           0       -1.465418   -3.302756   -2.421916
     17          1           0       -3.561995   -3.256772   -3.229384
     18          1           0       -0.912167   -3.797986   -3.217487
     19          6           0        0.543541   -2.870453   -0.777040
     20         15           0        1.080189   -1.051460   -0.929728
     21          1           0        0.616954   -3.146623    0.287392
     22          6           0        1.401497   -3.826373   -1.615182
     23          1           0        2.430430   -3.893492   -1.229221
     24          1           0        0.951311   -4.833015   -1.575483
     25          1           0        1.445044   -3.494096   -2.664368
     26          6           0        5.493666   -0.246293   -2.154574
     27          6           0        4.438484    0.463054   -2.743443
     28          6           0        3.109418    0.155238   -2.427264
     29          6           0        2.826280   -0.852930   -1.490587
     30          6           0        3.881273   -1.546400   -0.876687
     31          6           0        5.208280   -1.255142   -1.225171
     32          1           0        6.529590   -0.009428   -2.409402
     33          6           0        4.725501    1.532938   -3.770016
     34          1           0        2.288685    0.690163   -2.911324
     35          1           0        3.685993   -2.305104   -0.113232
     36          6           0        6.334217   -1.969309   -0.518459
     37          6           0        2.060305    0.567566    3.359878
     38          6           0        1.792003   -0.794841    3.188882
     39          6           0        1.472864   -1.310040    1.925763
     40          6           0        1.408052   -0.464048    0.807618
     41          6           0        1.696493    0.902612    0.977803
     42          6           0        2.009305    1.412066    2.244677
     43          1           0        2.296375    0.968531    4.348928
     44          6           0        1.808968   -1.691405    4.402252
     45          1           0        1.253470   -2.375390    1.847600
     46          1           0        1.661474    1.583460    0.123996
     47          6           0        2.182868    2.898060    2.427049
     48          9           0        2.920809    3.197181    3.527311
     49          9           0        2.791092    3.475139    1.352465
     50          9           0        0.970667    3.513486    2.579004
     51          9           0        1.416975   -2.960879    4.111808
     52          9           0        3.046208   -1.757423    4.959803
     53          9           0        0.965497   -1.217094    5.367574
     54          9           0        3.759037    2.495391   -3.770989
     55          9           0        5.917081    2.146361   -3.528158
     56          9           0        4.782376    1.019251   -5.024372
     57          9           0        6.681079   -1.326779    0.632568
     58          9           0        5.981308   -3.238900   -0.174345
     59          9           0        7.449743   -2.041542   -1.290450
     60         15           0       -1.783101    0.865394   -0.670993
     61          6           0       -6.321973    1.664995   -1.123957
     62          6           0       -5.410712    2.308667   -1.989816
     63          6           0       -4.043339    2.035433   -1.835120
     64          6           0       -3.588851    1.133805   -0.854870
     65          6           0       -4.520187    0.506988   -0.005756
     66          6           0       -5.894629    0.760412   -0.128579
     67          1           0       -3.326015    2.508331   -2.510171
     68          1           0       -4.181275   -0.179924    0.775632
     69          1           0       -4.185486   -2.018747   -0.897848
     70          6           0       -1.428801   -0.158184    3.333905
     71          6           0       -1.568167   -1.551342    3.316877
     72          6           0       -1.756915   -2.214822    2.098797
     73          6           0       -1.828565   -1.514880    0.878783
     74          6           0       -1.688598   -0.096207    0.907092
     75          6           0       -1.485553    0.562017    2.134324
     76          1           0       -1.247107    0.366428    4.276847
     77          1           0       -1.497722   -2.123017    4.247197
     78          1           0       -1.847810   -3.302653    2.066419
     79          1           0       -1.330380    1.644783    2.148441
     80          6           0       -0.147325    5.135010    0.045766
     81          6           0        0.522042    4.272185   -0.849303
     82          6           0       -0.007437    2.987993   -1.040717
     83          6           0       -1.160135    2.558823   -0.356957
     84          6           0       -1.836599    3.460692    0.485676
     85          6           0       -1.337115    4.753461    0.708084
     86          1           0        0.465077    2.304576   -1.759017
     87          1           0       -2.779037    3.164106    0.960672
     88          6           0       -5.890364    3.232750   -3.082365
     89          1           0       -5.207961    3.194112   -3.946741
     90          1           0       -6.902022    2.950627   -3.415487
     91          1           0       -5.931450    4.285073   -2.743286
     92          6           0       -6.903815    0.078654    0.763074
     93          1           0       -6.414485   -0.667671    1.410187
     94          1           0       -7.428801    0.799017    1.416411
     95          1           0       -7.681443   -0.427425    0.166475
     96          8           0       -7.687607    1.861957   -1.274558
     97          6           0       -8.160915    3.072237   -0.671651
     98          1           0       -7.953603    3.086764    0.415994
     99          1           0       -7.703892    3.967720   -1.133369
    100          1           0       -9.249034    3.094278   -0.836410
    101          6           0        1.758869    4.731020   -1.580353
    102          1           0        2.137259    3.946148   -2.254728
    103          1           0        2.568259    4.987609   -0.875077
    104          1           0        1.555444    5.637330   -2.175209
    105          6           0       -2.059567    5.723134    1.610067
    106          1           0       -1.940528    6.756712    1.247614
    107          1           0       -3.134140    5.483898    1.664897
    108          1           0       -1.662827    5.689715    2.642157
    109          8           0        0.339978    6.421658    0.204550
    110          6           0        1.167246    6.588392    1.366597
    111          1           0        0.615429    6.358496    2.297001
    112          1           0        2.060515    5.940475    1.318716
    113          1           0        1.473885    7.645063    1.372397
 ---------------------------------------------------------------------

 SCF Done:  E(RPBE1PBE) =  -4160.77687381     A.U. after    1 cycles

 The electronic state is 1-A.
 Alpha  occ. eigenvalues --  -77.22172 -77.19727 -24.81631 -24.81605 -24.81590
 Alpha  occ. eigenvalues --  -24.81559 -24.81498 -24.81486 -24.81399 -24.81396
 Alpha  occ. eigenvalues --  -24.81083 -24.81079 -24.81032 -24.80902 -19.22659
 Alpha  occ. eigenvalues --  -19.22475 -10.49236 -10.49145 -10.48900 -10.48852
 Alpha  occ. eigenvalues --  -10.28654 -10.28616 -10.28276 -10.28125 -10.27802
 Alpha  occ. eigenvalues --  -10.27797 -10.27723 -10.27673 -10.27560 -10.27474
 Alpha  occ. eigenvalues --  -10.27357 -10.27249 -10.27166 -10.27043 -10.26751
 Alpha  occ. eigenvalues --  -10.26703 -10.26537 -10.25570 -10.25455 -10.25120
 Alpha  occ. eigenvalues --  -10.24896 -10.24493 -10.24445 -10.24394 -10.24362
 Alpha  occ. eigenvalues --  -10.24317 -10.24224 -10.24186 -10.24186 -10.24134
 Alpha  occ. eigenvalues --  -10.23972 -10.23874 -10.23816 -10.23801 -10.23797
 Alpha  occ. eigenvalues --  -10.23796 -10.23776 -10.23708 -10.23665 -10.23414
 Alpha  occ. eigenvalues --  -10.23407 -10.23208 -10.22529 -10.22393 -10.22372
 Alpha  occ. eigenvalues --  -10.22108 -10.22106 -10.22040  -6.61748  -6.59338
 Alpha  occ. eigenvalues --   -4.75354  -4.75303  -4.74861  -4.72933  -4.72921
 Alpha  occ. eigenvalues --   -4.72470  -3.60698  -2.25302  -2.20970  -2.20933
 Alpha  occ. eigenvalues --   -1.35128  -1.35029  -1.34835  -1.34825  -1.26796
 Alpha  occ. eigenvalues --   -1.26716  -1.26645  -1.26616  -1.26603  -1.26306
 Alpha  occ. eigenvalues --   -1.26119  -1.26091  -1.07988  -1.07770  -0.93383
 Alpha  occ. eigenvalues --   -0.92752  -0.92470  -0.90753  -0.88823  -0.88282
 Alpha  occ. eigenvalues --   -0.87717  -0.84961  -0.84299  -0.84255  -0.81998
 Alpha  occ. eigenvalues --   -0.81479  -0.81029  -0.80605  -0.80159  -0.79551
 Alpha  occ. eigenvalues --   -0.77565  -0.77208  -0.75146  -0.74683  -0.74264
 Alpha  occ. eigenvalues --   -0.73935  -0.73925  -0.73782  -0.73249  -0.73143
 Alpha  occ. eigenvalues --   -0.73137  -0.72909  -0.70355  -0.70156  -0.70010
 Alpha  occ. eigenvalues --   -0.69764  -0.68669  -0.67349  -0.67032  -0.66782
 Alpha  occ. eigenvalues --   -0.66070  -0.65345  -0.64049  -0.63109  -0.62389
 Alpha  occ. eigenvalues --   -0.62283  -0.62130  -0.62103  -0.61946  -0.61836
 Alpha  occ. eigenvalues --   -0.61780  -0.61707  -0.61582  -0.60307  -0.60213
 Alpha  occ. eigenvalues --   -0.59746  -0.59592  -0.57382  -0.57011  -0.56487
 Alpha  occ. eigenvalues --   -0.56405  -0.56348  -0.56173  -0.55860  -0.55070
 Alpha  occ. eigenvalues --   -0.54638  -0.54331  -0.54234  -0.53240  -0.52976
 Alpha  occ. eigenvalues --   -0.52712  -0.51828  -0.51170  -0.51009  -0.50965
 Alpha  occ. eigenvalues --   -0.50247  -0.50000  -0.49848  -0.49737  -0.49716
 Alpha  occ. eigenvalues --   -0.49701  -0.49593  -0.49339  -0.49198  -0.48504
 Alpha  occ. eigenvalues --   -0.47914  -0.47753  -0.47667  -0.46833  -0.46686
 Alpha  occ. eigenvalues --   -0.46609  -0.46370  -0.46243  -0.46128  -0.46088
 Alpha  occ. eigenvalues --   -0.45936  -0.45802  -0.45589  -0.45334  -0.45136
 Alpha  occ. eigenvalues --   -0.44819  -0.44785  -0.44463  -0.44365  -0.44271
 Alpha  occ. eigenvalues --   -0.44172  -0.44078  -0.44007  -0.43971  -0.43865
 Alpha  occ. eigenvalues --   -0.43764  -0.43634  -0.43335  -0.43172  -0.43113
 Alpha  occ. eigenvalues --   -0.42946  -0.42766  -0.42677  -0.42493  -0.42419
 Alpha  occ. eigenvalues --   -0.42324  -0.42261  -0.42070  -0.41910  -0.41730
 Alpha  occ. eigenvalues --   -0.41695  -0.41529  -0.41214  -0.41001  -0.40540
 Alpha  occ. eigenvalues --   -0.39867  -0.39797  -0.39734  -0.39614  -0.39433
 Alpha  occ. eigenvalues --   -0.39099  -0.38737  -0.38604  -0.38375  -0.37792
 Alpha  occ. eigenvalues --   -0.37446  -0.37231  -0.36735  -0.36436  -0.36288
 Alpha  occ. eigenvalues --   -0.35993  -0.35952  -0.35655  -0.35537  -0.34971
 Alpha  occ. eigenvalues --   -0.33509  -0.33130  -0.32107  -0.31192  -0.30479
 Alpha  occ. eigenvalues --   -0.29826  -0.29129  -0.29077  -0.28641  -0.28553
 Alpha  occ. eigenvalues --   -0.27687  -0.27445  -0.26779  -0.26153  -0.25991
 Alpha  occ. eigenvalues --   -0.25670  -0.25598  -0.25469  -0.24984  -0.24417
 Alpha  occ. eigenvalues --   -0.22734  -0.22599  -0.20083
 Alpha virt. eigenvalues --   -0.07033  -0.06657  -0.05611  -0.04677  -0.03437
 Alpha virt. eigenvalues --   -0.02696  -0.02242  -0.01470  -0.01053  -0.00795
 Alpha virt. eigenvalues --   -0.00478  -0.00354   0.00127   0.01374   0.01901

 Mulliken charges:
               1
     1  C   -0.071928
     2  C   -0.054460
     3  C    0.010809
     4  C   -0.119713
     5  C   -0.170414
     6  H    0.120144
     7  H    0.123160
     8  H    0.131017
     9  H    0.125948
    10  H    0.122573
    11  Fe  -0.458518
    12  C   -0.134097
    13  C   -0.062955
    14  C    0.436945
    15  C    0.230343
    16  C   -0.100929
    17  H    0.112495
    18  H    0.128616
    19  C   -0.110736
    20  P    0.045265
    21  H    0.081978
    22  C   -0.401342
    23  H    0.134556
    24  H    0.143111
    25  H    0.137265
    26  C   -0.296621
    27  C    0.158931
    28  C   -0.341814
    29  C    0.164692
    30  C   -0.342783
    31  C    0.161069
    32  H    0.166571
    33  C    0.433682
    34  H    0.174993
    35  H    0.167401
    36  C    0.437971
    37  C   -0.306474
    38  C    0.092722
    39  C   -0.228829
    40  C    0.246975
    41  C   -0.252878
    42  C    0.092232
    43  H    0.150356
    44  C    0.448337
    45  H    0.137521
    46  H    0.150616
    47  C    0.449060
    48  F   -0.162568
    49  F   -0.175096
    50  F   -0.164752
    51  F   -0.170514
    52  F   -0.157713
    53  F   -0.171236
    54  F   -0.159147
    55  F   -0.162526
    56  F   -0.153496
    57  F   -0.156385
    58  F   -0.165443
    59  F   -0.161477
    60  P    0.066224
    61  C    0.167003
    62  C    0.125191
    63  C   -0.365828
    64  C    0.252191
    65  C   -0.418439
    66  C    0.094720
    67  H    0.107760
    68  H    0.168126
    69  H    0.129763
    70  C   -0.198630
    71  C   -0.106149
    72  C   -0.268127
    73  C   -0.143920
    74  C   -0.256147
    75  C   -0.008717
    76  H    0.111881
    77  H    0.122458
    78  H    0.107856
    79  H    0.151911
    80  C    0.220399
    81  C    0.128276
    82  C   -0.431972
    83  C    0.145924
    84  C   -0.339355
    85  C    0.126077
    86  H    0.145402
    87  H    0.153551
    88  C   -0.450259
    89  H    0.138644
    90  H    0.159940
    91  H    0.138449
    92  C   -0.410819
    93  H    0.131025
    94  H    0.124150
    95  H    0.143461
    96  O   -0.288805
    97  C   -0.215255
    98  H    0.117703
    99  H    0.121120
   100  H    0.136438
   101  C   -0.402467
   102  H    0.139153
   103  H    0.126548
   104  H    0.143539
   105  C   -0.453237
   106  H    0.159364
   107  H    0.137073
   108  H    0.138749
   109  O   -0.287999
   110  C   -0.215201
   111  H    0.117854
   112  H    0.121821
   113  H    0.139075
 Sum of Mulliken charges =  -0.00000

 Dipole moment (field-independent basis, Debye):
    X=             -3.0988    Y=             -0.2048    Z=              0.2189  Tot=              3.1133
 Quadrupole moment (field-independent basis, Debye-Ang):
   XX=           -421.9437   YY=           -408.4965   ZZ=           -421.0741
   XY=             -6.2226   XZ=             -5.3424   YZ=             17.2075

 Summary of Natural Population Analysis:

                                       Natural Population
                Natural  -----------------------------------------------
    Atom  No    Charge         Core      Valence    Rydberg      Total
 -----------------------------------------------------------------------
      C    1   -0.20795      1.99876     4.18379    0.02540     6.20795
      C    2   -0.20546      1.99877     4.18138    0.02531     6.20546
      C    3   -0.20488      1.99877     4.18086    0.02525     6.20488
      C    4   -0.21245      1.99876     4.18843    0.02526     6.21245
      C    5   -0.21854      1.99875     4.19495    0.02485     6.21854
      H    6    0.24651      0.00000     0.75217    0.00132     0.75349
      H    7    0.24809      0.00000     0.75061    0.00130     0.75191
      H    8    0.24716      0.00000     0.75151    0.00133     0.75284
      H    9    0.24421      0.00000     0.75446    0.00133     0.75579
      H   10    0.24342      0.00000     0.75515    0.00143     0.75658
     Fe   11   -0.32192     17.99238     8.29163    0.03791    26.32192
      C   12   -0.19078      1.99879     4.16941    0.02258     6.19078
      C   13   -0.18356      1.99870     4.16058    0.02429     6.18356
      C   14   -0.04536      1.99858     4.01187    0.03491     6.04536
      C   15   -0.00528      1.99858     3.97044    0.03626     6.00528
      C   16   -0.20303      1.99869     4.18184    0.02249     6.20303
      H   17    0.24469      0.00000     0.75381    0.00150     0.75531
      H   18    0.24427      0.00000     0.75393    0.00180     0.75573
      C   19   -0.47879      1.99925     4.45531    0.02423     6.47879
      P   20    0.84261      9.99804     4.13138    0.02797    14.15739
      H   21    0.23318      0.00000     0.76405    0.00277     0.76682
      C   22   -0.61660      1.99945     4.60425    0.01291     6.61660
      H   23    0.22069      0.00000     0.77839    0.00092     0.77931
      H   24    0.22576      0.00000     0.77286    0.00138     0.77424
      H   25    0.21626      0.00000     0.78251    0.00124     0.78374
      C   26   -0.14680      1.99907     4.13138    0.01635     6.14680
      C   27   -0.14878      1.99897     4.12546    0.02434     6.14878
      C   28   -0.15951      1.99904     4.14227    0.01819     6.15951
      C   29   -0.31652      1.99904     4.28669    0.03079     6.31652
      C   30   -0.15380      1.99902     4.13581    0.01896     6.15380
      C   31   -0.14929      1.99898     4.12537    0.02494     6.14929
      H   32    0.25412      0.00000     0.74456    0.00133     0.74588
      C   33    0.95062      1.99913     3.00263    0.04762     5.04938
      H   34    0.24834      0.00000     0.75032    0.00134     0.75166
      H   35    0.23671      0.00000     0.76118    0.00211     0.76329
      C   36    0.94968      1.99912     3.00388    0.04732     5.05032
      C   37   -0.16091      1.99906     4.14569    0.01617     6.16091
      C   38   -0.14298      1.99895     4.11862    0.02541     6.14298
      C   39   -0.17763      1.99899     4.15928    0.01936     6.17763
      C   40   -0.28685      1.99903     4.25425    0.03357     6.28685
      C   41   -0.17227      1.99900     4.15352    0.01975     6.17227
      C   42   -0.15229      1.99895     4.12860    0.02474     6.15229
      H   43    0.24921      0.00000     0.74939    0.00141     0.75079
      C   44    0.95179      1.99909     3.00269    0.04642     5.04821
      H   45    0.23321      0.00000     0.76485    0.00194     0.76679
      H   46    0.25139      0.00000     0.74631    0.00230     0.74861
      C   47    0.95386      1.99910     2.99957    0.04747     5.04614
      F   48   -0.31150      1.99992     7.30362    0.00795     9.31150
      F   49   -0.31649      1.99992     7.30800    0.00856     9.31649
      F   50   -0.31653      1.99992     7.30800    0.00860     9.31653
      F   51   -0.31378      1.99992     7.30577    0.00808     9.31378
      F   52   -0.30887      1.99992     7.30087    0.00807     9.30887
      F   53   -0.31826      1.99993     7.31006    0.00828     9.31826
      F   54   -0.31605      1.99992     7.30704    0.00908     9.31605
      F   55   -0.31128      1.99993     7.30287    0.00848     9.31128
      F   56   -0.30701      1.99992     7.29863    0.00845     9.30701
      F   57   -0.30970      1.99992     7.30149    0.00829     9.30970
      F   58   -0.31308      1.99993     7.30489    0.00826     9.31308
      F   59   -0.30983      1.99992     7.30142    0.00848     9.30983
      P   60    0.84188      9.99773     4.13088    0.02951    14.15812
      C   61    0.26286      1.99864     3.71823    0.02027     5.73714
      C   62   -0.04876      1.99903     4.03160    0.01812     6.04876
      C   63   -0.20572      1.99904     4.19021    0.01646     6.20572
      C   64   -0.31325      1.99904     4.28518    0.02902     6.31325
      C   65   -0.22748      1.99902     4.21013    0.01833     6.22748
      C   66   -0.04989      1.99903     4.03247    0.01839     6.04989
      H   67    0.21861      0.00000     0.77947    0.00192     0.78139
      H   68    0.22314      0.00000     0.77415    0.00272     0.77686
      H   69    0.25631      0.00000     0.74169    0.00200     0.74369
      C   70   -0.20822      1.99920     4.19072    0.01830     6.20822
      C   71   -0.21334      1.99920     4.19592    0.01823     6.21334
      C   72   -0.21288      1.99908     4.19586    0.01794     6.21288
      C   73   -0.04867      1.99892     4.02538    0.02438     6.04867
      C   74   -0.28835      1.99896     4.25673    0.03266     6.28835
      C   75   -0.21746      1.99908     4.19761    0.02077     6.21746
      H   76    0.22508      0.00000     0.77363    0.00128     0.77492
      H   77    0.22706      0.00000     0.77165    0.00129     0.77294
      H   78    0.22433      0.00000     0.77346    0.00221     0.77567
      H   79    0.23534      0.00000     0.76257    0.00209     0.76466
      C   80    0.29157      1.99864     3.68963    0.02015     5.70843
      C   81   -0.05269      1.99901     4.03408    0.01961     6.05269
      C   82   -0.21169      1.99905     4.19442    0.01822     6.21169
      C   83   -0.33863      1.99903     4.31099    0.02860     6.33863
      C   84   -0.20101      1.99902     4.18397    0.01802     6.20101
      C   85   -0.05170      1.99903     4.03418    0.01849     6.05170
      H   86    0.22215      0.00000     0.77583    0.00202     0.77785
      H   87    0.22507      0.00000     0.77264    0.00229     0.77493
      C   88   -0.64394      1.99943     4.63239    0.01212     6.64394
      H   89    0.22471      0.00000     0.77428    0.00101     0.77529
      H   90    0.23356      0.00000     0.76520    0.00124     0.76644
      H   91    0.22065      0.00000     0.77793    0.00142     0.77935
      C   92   -0.63456      1.99944     4.62317    0.01195     6.63456
      H   93    0.21759      0.00000     0.78156    0.00085     0.78241
      H   94    0.22093      0.00000     0.77776    0.00131     0.77907
      H   95    0.23213      0.00000     0.76660    0.00126     0.76787
      O   96   -0.49859      1.99977     6.47230    0.02651     8.49859
      C   97   -0.26460      1.99931     4.25249    0.01280     6.26460
      H   98    0.17155      0.00000     0.82627    0.00218     0.82845
      H   99    0.17323      0.00000     0.82455    0.00222     0.82677
      H  100    0.19454      0.00000     0.80403    0.00144     0.80546
      C  101   -0.63774      1.99943     4.62609    0.01223     6.63774
      H  102    0.22269      0.00000     0.77652    0.00080     0.77731
      H  103    0.22697      0.00000     0.77173    0.00130     0.77303
      H  104    0.23379      0.00000     0.76495    0.00126     0.76621
      C  105   -0.64354      1.99943     4.63215    0.01196     6.64354
      H  106    0.23599      0.00000     0.76278    0.00123     0.76401
      H  107    0.22320      0.00000     0.77585    0.00095     0.77680
      H  108    0.22218      0.00000     0.77639    0.00143     0.77782
      O  109   -0.49958      1.99977     6.47403    0.02578     8.49958
      C  110   -0.26585      1.99929     4.25403    0.01252     6.26585
      H  111    0.17524      0.00000     0.82255    0.00220     0.82476
      H  112    0.18006      0.00000     0.81791    0.00202     0.81994
      H  113    0.19454      0.00000     0.80409    0.00138     0.80546
 =======================================================================
   * Total *   -0.00000    169.93554   364.53145    1.53301   536.00000

 Normal termination of Gaussian 16 at Fri Mar  4 02:34:35 2022.
