 Gaussian 16, Revision B.01,

 ----------------------------------------------------------------------
 # PBE1PBE gen pseudo=read int=(grid=ultrafine) empiricaldispersion=GD3
 BJ nmr=giao
 ----------------------------------------------------------------------

 --------------
 W005_1_5 title
 --------------
 Symbolic Z-matrix:
 Charge =  0 Multiplicity = 1

 SCF Done:  E(RPBE1PBE) =  -4160.77803213     A.U. after   22 cycles

      1  C    Isotropic =   110.3417   Anisotropy =    93.2468

      2  C    Isotropic =   112.8483   Anisotropy =    89.7723

      3  C    Isotropic =   112.2621   Anisotropy =    88.5493

      4  C    Isotropic =   111.7550   Anisotropy =    89.5051

      5  C    Isotropic =   111.2111   Anisotropy =    92.2213

      6  H    Isotropic =    27.6750   Anisotropy =     5.4040

      7  H    Isotropic =    27.4270   Anisotropy =     6.4824

      8  H    Isotropic =    27.1405   Anisotropy =     5.3758

      9  H    Isotropic =    27.4017   Anisotropy =     3.8400

     10  H    Isotropic =    27.4986   Anisotropy =     4.4556

     11  Fe   Isotropic = -6313.5315   Anisotropy =  8558.2896

     12  C    Isotropic =   113.8010   Anisotropy =    83.5496

     13  C    Isotropic =   107.4504   Anisotropy =    82.6487

     14  C    Isotropic =    87.0546   Anisotropy =    94.8818

     15  C    Isotropic =    88.2534   Anisotropy =    97.4307

     16  C    Isotropic =   118.5543   Anisotropy =    83.9543

     17  H    Isotropic =    27.2640   Anisotropy =     6.7272

     18  H    Isotropic =    27.3053   Anisotropy =     8.2483

     19  C    Isotropic =   155.1331   Anisotropy =    15.3996

     20  P    Isotropic =   291.5877   Anisotropy =    60.3954

     21  H    Isotropic =    28.2520   Anisotropy =     6.9949

     22  C    Isotropic =   163.6404   Anisotropy =    11.0342

     23  H    Isotropic =    30.1144   Anisotropy =     7.6619

     24  H    Isotropic =    29.5185   Anisotropy =     8.0816

     25  H    Isotropic =    31.3018   Anisotropy =     4.2291

     26  C    Isotropic =    57.2136   Anisotropy =   187.3869

     27  C    Isotropic =    46.8321   Anisotropy =   160.4963

     28  C    Isotropic =    41.0989   Anisotropy =   199.9838

     29  C    Isotropic =    36.5388   Anisotropy =   212.0979

     30  C    Isotropic =    42.9360   Anisotropy =   191.1743

     31  C    Isotropic =    48.3327   Anisotropy =   159.3415

     32  H    Isotropic =    23.2394   Anisotropy =    10.2873

     33  C    Isotropic =    48.6862   Anisotropy =    14.8942

     34  H    Isotropic =    24.0104   Anisotropy =    16.3345

     35  H    Isotropic =    22.6893   Anisotropy =    11.5609

     36  C    Isotropic =    48.0976   Anisotropy =    13.9673

     37  C    Isotropic =    56.1784   Anisotropy =   194.0494

     38  C    Isotropic =    46.5347   Anisotropy =   166.5728

     39  C    Isotropic =    48.0770   Anisotropy =   196.7738

     40  C    Isotropic =    36.6069   Anisotropy =   211.4189

     41  C    Isotropic =    45.2035   Anisotropy =   195.4739

     42  C    Isotropic =    46.5779   Anisotropy =   169.9582

     43  H    Isotropic =    23.5148   Anisotropy =     8.2974

     44  C    Isotropic =    48.1257   Anisotropy =    13.0561

     45  H    Isotropic =    23.4380   Anisotropy =    13.9656

     46  H    Isotropic =    23.9255   Anisotropy =    12.6648

     47  C    Isotropic =    49.3415   Anisotropy =    11.4168

     48  F    Isotropic =   221.7757   Anisotropy =   150.1056

     49  F    Isotropic =   251.5348   Anisotropy =   123.1070

     50  F    Isotropic =   237.9551   Anisotropy =   139.0208

     51  F    Isotropic =   220.7995   Anisotropy =   149.8017

     52  F    Isotropic =   250.9928   Anisotropy =   126.3730

     53  F    Isotropic =   235.7167   Anisotropy =   145.4457

     54  F    Isotropic =   250.1904   Anisotropy =   137.1675

     55  F    Isotropic =   244.1836   Anisotropy =   140.3448

     56  F    Isotropic =   218.6885   Anisotropy =   150.5229

     57  F    Isotropic =   255.6557   Anisotropy =   128.5900

     58  F    Isotropic =   217.5079   Anisotropy =   158.1185

     59  F    Isotropic =   240.5514   Anisotropy =   137.5730

     60  P    Isotropic =   303.5112   Anisotropy =    61.1693

     61  C    Isotropic =    20.6525   Anisotropy =   126.7762

     62  C    Isotropic =    45.9214   Anisotropy =   173.4778

     63  C    Isotropic =    50.0248   Anisotropy =   155.1112

     64  C    Isotropic =    39.3423   Anisotropy =   189.3844

     65  C    Isotropic =    47.7789   Anisotropy =   154.7173

     66  C    Isotropic =    47.5915   Anisotropy =   172.4744

     67  H    Isotropic =    24.3568   Anisotropy =    14.7842

     68  H    Isotropic =    24.1239   Anisotropy =    12.0718

     69  H    Isotropic =    27.2995   Anisotropy =     4.3520

     70  C    Isotropic =    52.4326   Anisotropy =   183.8444

     71  C    Isotropic =    52.1845   Anisotropy =   183.3054

     72  C    Isotropic =    43.8513   Anisotropy =   165.0753

     73  C    Isotropic =    38.5898   Anisotropy =   187.8693

     74  C    Isotropic =    33.9924   Anisotropy =   199.8351

     75  C    Isotropic =    38.4434   Anisotropy =   200.9676

     76  H    Isotropic =    24.1038   Anisotropy =     5.6058

     77  H    Isotropic =    23.8403   Anisotropy =     5.0861

     78  H    Isotropic =    22.7023   Anisotropy =     8.4538

     79  H    Isotropic =    23.4295   Anisotropy =    10.0988

     80  C    Isotropic =    22.2029   Anisotropy =   131.6200

     81  C    Isotropic =    46.2109   Anisotropy =   180.9902

     82  C    Isotropic =    46.4913   Anisotropy =   164.2158

     83  C    Isotropic =    46.0965   Anisotropy =   188.9198

     84  C    Isotropic =    45.8964   Anisotropy =   170.3017

     85  C    Isotropic =    46.5820   Anisotropy =   181.6741

     86  H    Isotropic =    24.0620   Anisotropy =    11.0372

     87  H    Isotropic =    24.6566   Anisotropy =    12.4141

     88  C    Isotropic =   167.8654   Anisotropy =    29.5991

     89  H    Isotropic =    29.8349   Anisotropy =     6.2685

     90  H    Isotropic =    29.2927   Anisotropy =     8.7953

     91  H    Isotropic =    28.9212   Anisotropy =     8.4724

     92  C    Isotropic =   169.5607   Anisotropy =    28.2270

     93  H    Isotropic =    29.5532   Anisotropy =     8.1131

     94  H    Isotropic =    28.7753   Anisotropy =     7.7766

     95  H    Isotropic =    29.2224   Anisotropy =     8.6083

     96  O    Isotropic =   259.4982   Anisotropy =   109.7526

     97  C    Isotropic =   126.6327   Anisotropy =    84.1534

     98  H    Isotropic =    28.1440   Anisotropy =     8.7192

     99  H    Isotropic =    27.9040   Anisotropy =     8.2211

    100  H    Isotropic =    27.7260   Anisotropy =    10.5622

    101  C    Isotropic =   167.8278   Anisotropy =    26.8788

    102  H    Isotropic =    28.5626   Anisotropy =     5.1057

    103  H    Isotropic =    29.1716   Anisotropy =    10.0462

    104  H    Isotropic =    29.5036   Anisotropy =     5.8403

    105  C    Isotropic =   166.7326   Anisotropy =    21.9818

    106  H    Isotropic =    28.9883   Anisotropy =     3.7575

    107  H    Isotropic =    29.3182   Anisotropy =    10.1635

    108  H    Isotropic =    29.8924   Anisotropy =     5.2024

    109  O    Isotropic =   257.2844   Anisotropy =   112.2621

    110  C    Isotropic =   126.7877   Anisotropy =    86.1688

    111  H    Isotropic =    27.6004   Anisotropy =    11.0921

    112  H    Isotropic =    27.7619   Anisotropy =     9.8645

    113  H    Isotropic =    28.0905   Anisotropy =    10.3149

 Normal termination of Gaussian 16 at Fri Mar  4 06:34:07 2022.
 Gaussian 16:  ES64L-G16RevB.01 20-Dec-2017

 ----------------------------------------------------------------------
 # PBE1PBE gen pseudo=read int=(grid=ultrafine) empiricaldispersion=GD3
 BJ pop=nbo guess=read geom=check
 ----------------------------------------------------------------------

 --------------
 W005_1_5 title
 --------------
 Structure from the checkpoint file:  "W005_1_5_SPE_NoPd.chk"
 Charge =  0 Multiplicity = 1

                         Standard orientation:
 ---------------------------------------------------------------------
 Center     Atomic      Atomic             Coordinates (Angstroms)
 Number     Number       Type             X           Y           Z
 ---------------------------------------------------------------------
      1          6           0        2.702613   -4.281039    2.744816
      2          6           0        2.752551   -5.382056    1.825356
      3          6           0        1.541094   -6.139275    1.973560
      4          6           0        0.742437   -5.506321    2.985786
      5          6           0        1.459199   -4.353762    3.461036
      6          1           0        3.545130   -5.575660    1.101634
      7          1           0        1.253613   -7.010113    1.383432
      8          1           0       -0.247013   -5.833623    3.308023
      9          1           0        1.114142   -3.644848    4.214730
     10          1           0        3.466439   -3.512443    2.856718
     11         26           0        1.118366   -4.210346    1.435715
     12          6           0        0.688306   -4.335672   -0.546563
     13          6           0       -0.516007   -4.144687    0.208043
     14          6           0       -0.403567   -2.901139    0.927557
     15          6           0        0.892620   -2.331744    0.633076
     16          6           0        1.564726   -3.231673   -0.277054
     17          1           0        0.927451   -5.201503   -1.164705
     18          1           0        2.581124   -3.134890   -0.656473
     19          6           0        1.313919   -0.954097    1.071538
     20         15           0        1.178504    0.115475   -0.484875
     21          1           0        0.530084   -0.563170    1.747948
     22          6           0        2.678609   -0.889301    1.770861
     23          1           0        3.018985    0.145729    1.939065
     24          1           0        2.598582   -1.392627    2.747910
     25          1           0        3.453432   -1.403145    1.180811
     26          6           0        5.557541   -0.424569   -1.935552
     27          6           0        5.226889    0.663396   -1.118224
     28          6           0        3.898958    0.875588   -0.715688
     29          6           0        2.886408    0.010201   -1.156751
     30          6           0        3.205522   -1.044330   -2.027434
     31          6           0        4.539511   -1.276140   -2.383826
     32          1           0        6.594193   -0.598712   -2.232284
     33          6           0        6.311096    1.565805   -0.582551
     34          1           0        3.663081    1.724453   -0.067500
     35          1           0        2.409874   -1.672582   -2.434155
     36          6           0        4.851441   -2.507708   -3.195701
     37          6           0        0.695284    4.591442    0.668676
     38          6           0        0.996952    3.668427    1.674098
     39          6           0        1.158639    2.306077    1.368452
     40          6           0        1.030912    1.868191    0.042374
     41          6           0        0.721288    2.796142   -0.974210
     42          6           0        0.553032    4.145759   -0.654402
     43          1           0        0.542262    5.644938    0.914461
     44          6           0        1.179740    4.118632    3.101751
     45          1           0        1.365931    1.602633    2.179222
     46          1           0        0.598466    2.446791   -2.006232
     47          6           0        0.243713    5.146058   -1.745061
     48          9           0        1.373710    5.782948   -2.158600
     49          9           0       -0.313162    4.553351   -2.830731
     50          9           0       -0.618138    6.104270   -1.305152
     51          9           0        2.495702    4.178815    3.441184
     52          9           0        0.643120    5.346182    3.326664
     53          9           0        0.590065    3.243973    3.972791
     54          9           0        7.401295    1.585236   -1.392510
     55          9           0        5.871707    2.844895   -0.439471
     56          9           0        6.729958    1.149404    0.648050
     57          9           0        6.131728   -2.521324   -3.646027
     58          9           0        4.680907   -3.631371   -2.424297
     59          9           0        4.025940   -2.636769   -4.261250
     60         15           0       -2.220946   -0.510877   -0.363576
     61          6           0       -6.128487   -2.617626   -1.631730
     62          6           0       -6.203659   -1.271119   -1.218440
     63          6           0       -5.012689   -0.614453   -0.867731
     64          6           0       -3.781994   -1.283809   -0.936741
     65          6           0       -3.733698   -2.628736   -1.338084
     66          6           0       -4.902249   -3.317445   -1.688490
     67          1           0       -5.053908    0.433850   -0.553574
     68          1           0       -2.767688   -3.141156   -1.407586
     69          1           0       -1.367810   -4.824008    0.258485
     70          6           0       -3.507169   -1.297392    3.460667
     71          6           0       -2.717625   -2.372363    3.888937
     72          6           0       -1.710548   -2.862712    3.054739
     73          6           0       -1.449615   -2.296966    1.788345
     74          6           0       -2.238718   -1.198278    1.364774
     75          6           0       -3.274874   -0.730730    2.205423
     76          1           0       -4.313217   -0.909613    4.091534
     77          1           0       -2.892663   -2.835648    4.865366
     78          1           0       -1.096613   -3.709455    3.364899
     79          1           0       -3.925510    0.076249    1.857980
     80          6           0       -2.972365    4.052002   -0.047938
     81          6           0       -3.132933    3.388746   -1.286237
     82          6           0       -2.926613    2.000850   -1.326475
     83          6           0       -2.560168    1.284785   -0.167188
     84          6           0       -2.346304    1.983789    1.034753
     85          6           0       -2.569802    3.367502    1.118015
     86          1           0       -3.020565    1.469108   -2.281591
     87          1           0       -2.013283    1.455664    1.933491
     88          6           0       -7.537833   -0.568971   -1.150914
     89          1           0       -7.449745    0.391958   -0.618364
     90          1           0       -7.936739   -0.354570   -2.159475
     91          1           0       -8.289355   -1.192819   -0.639361
     92          6           0       -4.853426   -4.762387   -2.119862
     93          1           0       -3.999738   -5.283047   -1.655033
     94          1           0       -5.783540   -5.286125   -1.846862
     95          1           0       -4.728619   -4.851603   -3.215154
     96          8           0       -7.311673   -3.279489   -1.935431
     97          6           0       -7.609286   -3.283574   -3.338521
     98          1           0       -7.699632   -2.254064   -3.734270
     99          1           0       -6.833906   -3.818490   -3.918548
    100          1           0       -8.572629   -3.804935   -3.448592
    101          6           0       -3.474723    4.158923   -2.537876
    102          1           0       -2.986117    5.145658   -2.529881
    103          1           0       -4.563937    4.326223   -2.632615
    104          1           0       -3.146403    3.606935   -3.432672
    105          6           0       -2.390483    4.109962    2.418919
    106          1           0       -1.872904    5.069797    2.266095
    107          1           0       -3.365669    4.345170    2.884741
    108          1           0       -1.812088    3.511035    3.139463
    109          8           0       -3.134175    5.427079    0.027571
    110          6           0       -4.499076    5.834414    0.180571
    111          1           0       -4.488391    6.933587    0.235640
    112          1           0       -5.119783    5.518103   -0.678738
    113          1           0       -4.939454    5.424096    1.109921
 ---------------------------------------------------------------------

 SCF Done:  E(RPBE1PBE) =  -4160.77803213     A.U. after    1 cycles

 The electronic state is 1-A.
 Alpha  occ. eigenvalues --  -77.21691 -77.20287 -24.81723 -24.81598 -24.81500
 Alpha  occ. eigenvalues --  -24.81285 -24.81221 -24.81125 -24.81119 -24.81091
 Alpha  occ. eigenvalues --  -24.81048 -24.80784 -24.80554 -24.80499 -19.22757
 Alpha  occ. eigenvalues --  -19.22710 -10.49135 -10.48926 -10.48777 -10.48429
 Alpha  occ. eigenvalues --  -10.28333 -10.28208 -10.28092 -10.28043 -10.27960
 Alpha  occ. eigenvalues --  -10.27878 -10.27690 -10.27609 -10.27571 -10.27265
 Alpha  occ. eigenvalues --  -10.27253 -10.27198 -10.27190 -10.27137 -10.27120
 Alpha  occ. eigenvalues --  -10.27045 -10.26284 -10.25562 -10.25540 -10.25235
 Alpha  occ. eigenvalues --  -10.24786 -10.24453 -10.24420 -10.24409 -10.24403
 Alpha  occ. eigenvalues --  -10.24365 -10.24344 -10.24331 -10.24307 -10.24305
 Alpha  occ. eigenvalues --  -10.24257 -10.24198 -10.24107 -10.23994 -10.23935
 Alpha  occ. eigenvalues --  -10.23715 -10.23664 -10.23630 -10.23570 -10.23391
 Alpha  occ. eigenvalues --  -10.23258 -10.23160 -10.22874 -10.22779 -10.22440
 Alpha  occ. eigenvalues --  -10.22296 -10.22267 -10.22255  -6.61317  -6.59878
 Alpha  occ. eigenvalues --   -4.74923  -4.74875  -4.74427  -4.73484  -4.73448
 Alpha  occ. eigenvalues --   -4.73012  -3.60715  -2.25334  -2.20968  -2.20954
 Alpha  occ. eigenvalues --   -1.35072  -1.34833  -1.34686  -1.34403  -1.26967
 Alpha  occ. eigenvalues --   -1.26582  -1.26454  -1.26220  -1.26172  -1.26165
 Alpha  occ. eigenvalues --   -1.25961  -1.25640  -1.08150  -1.07970  -0.93140
 Alpha  occ. eigenvalues --   -0.92789  -0.92611  -0.90801  -0.88935  -0.88272
 Alpha  occ. eigenvalues --   -0.88052  -0.84703  -0.84344  -0.84236  -0.81571
 Alpha  occ. eigenvalues --   -0.81443  -0.81116  -0.80903  -0.80302  -0.79688
 Alpha  occ. eigenvalues --   -0.77857  -0.77141  -0.74970  -0.74625  -0.74039
 Alpha  occ. eigenvalues --   -0.73923  -0.73898  -0.73709  -0.73444  -0.73344
 Alpha  occ. eigenvalues --   -0.73191  -0.72914  -0.70590  -0.70195  -0.70109
 Alpha  occ. eigenvalues --   -0.69897  -0.68928  -0.67136  -0.66829  -0.66652
 Alpha  occ. eigenvalues --   -0.66049  -0.65454  -0.63791  -0.63199  -0.62326
 Alpha  occ. eigenvalues --   -0.62062  -0.61976  -0.61933  -0.61790  -0.61739
 Alpha  occ. eigenvalues --   -0.61618  -0.61378  -0.61260  -0.60394  -0.60243
 Alpha  occ. eigenvalues --   -0.60180  -0.59772  -0.57683  -0.57198  -0.56533
 Alpha  occ. eigenvalues --   -0.56493  -0.56026  -0.55894  -0.55815  -0.55034
 Alpha  occ. eigenvalues --   -0.54530  -0.54100  -0.54061  -0.53456  -0.53214
 Alpha  occ. eigenvalues --   -0.52443  -0.51615  -0.51485  -0.51180  -0.50982
 Alpha  occ. eigenvalues --   -0.50255  -0.49853  -0.49700  -0.49648  -0.49449
 Alpha  occ. eigenvalues --   -0.49395  -0.49300  -0.49115  -0.48793  -0.48248
 Alpha  occ. eigenvalues --   -0.48107  -0.47999  -0.47573  -0.46891  -0.46633
 Alpha  occ. eigenvalues --   -0.46502  -0.46388  -0.46244  -0.45959  -0.45842
 Alpha  occ. eigenvalues --   -0.45655  -0.45507  -0.45389  -0.45166  -0.45029
 Alpha  occ. eigenvalues --   -0.44980  -0.44807  -0.44293  -0.44217  -0.44165
 Alpha  occ. eigenvalues --   -0.44110  -0.43987  -0.43963  -0.43834  -0.43750
 Alpha  occ. eigenvalues --   -0.43695  -0.43516  -0.43459  -0.43194  -0.43097
 Alpha  occ. eigenvalues --   -0.43000  -0.42915  -0.42819  -0.42652  -0.42546
 Alpha  occ. eigenvalues --   -0.42485  -0.42258  -0.42047  -0.41912  -0.41747
 Alpha  occ. eigenvalues --   -0.41391  -0.41231  -0.41139  -0.40937  -0.40710
 Alpha  occ. eigenvalues --   -0.40432  -0.39772  -0.39715  -0.39687  -0.39260
 Alpha  occ. eigenvalues --   -0.39134  -0.38880  -0.38765  -0.38551  -0.38184
 Alpha  occ. eigenvalues --   -0.37694  -0.37337  -0.36662  -0.36443  -0.36326
 Alpha  occ. eigenvalues --   -0.36174  -0.36001  -0.35936  -0.35494  -0.34682
 Alpha  occ. eigenvalues --   -0.33740  -0.33222  -0.31143  -0.30968  -0.30555
 Alpha  occ. eigenvalues --   -0.30427  -0.29353  -0.29217  -0.28938  -0.28455
 Alpha  occ. eigenvalues --   -0.28308  -0.27658  -0.26874  -0.26596  -0.26408
 Alpha  occ. eigenvalues --   -0.25863  -0.25521  -0.25302  -0.24753  -0.24295
 Alpha  occ. eigenvalues --   -0.22744  -0.22597  -0.20329
 Alpha virt. eigenvalues --   -0.06599  -0.06234  -0.05664  -0.05212  -0.03895
 Alpha virt. eigenvalues --   -0.02403  -0.02284  -0.01391  -0.01208  -0.00702
 Alpha virt. eigenvalues --   -0.00438  -0.00199   0.00001   0.01838   0.02315

 Mulliken charges:
               1
     1  C   -0.046752
     2  C   -0.065299
     3  C    0.023232
     4  C   -0.104372
     5  C   -0.189346
     6  H    0.126155
     7  H    0.121161
     8  H    0.134387
     9  H    0.132816
    10  H    0.129830
    11  Fe  -0.521308
    12  C   -0.058352
    13  C   -0.101658
    14  C    0.471702
    15  C    0.348128
    16  C   -0.263461
    17  H    0.117048
    18  H    0.178607
    19  C   -0.261285
    20  P    0.028381
    21  H    0.150703
    22  C   -0.438609
    23  H    0.141318
    24  H    0.149220
    25  H    0.149501
    26  C   -0.317344
    27  C    0.159073
    28  C   -0.326838
    29  C    0.196653
    30  C   -0.434101
    31  C    0.177024
    32  H    0.169839
    33  C    0.431756
    34  H    0.174965
    35  H    0.204719
    36  C    0.448214
    37  C   -0.305107
    38  C    0.119894
    39  C   -0.336322
    40  C    0.170212
    41  C   -0.241821
    42  C    0.162148
    43  H    0.164863
    44  C    0.457579
    45  H    0.166358
    46  H    0.142765
    47  C    0.460505
    48  F   -0.157383
    49  F   -0.169262
    50  F   -0.162371
    51  F   -0.155245
    52  F   -0.163677
    53  F   -0.173968
    54  F   -0.161838
    55  F   -0.160470
    56  F   -0.160658
    57  F   -0.159443
    58  F   -0.165841
    59  F   -0.156543
    60  P    0.095234
    61  C    0.177777
    62  C    0.112108
    63  C   -0.362256
    64  C    0.182666
    65  C   -0.411261
    66  C    0.132206
    67  H    0.140570
    68  H    0.157631
    69  H    0.132128
    70  C   -0.137468
    71  C   -0.135525
    72  C   -0.199642
    73  C   -0.114595
    74  C   -0.126874
    75  C   -0.175242
    76  H    0.117013
    77  H    0.116887
    78  H    0.086145
    79  H    0.146058
    80  C    0.190445
    81  C    0.145602
    82  C   -0.445521
    83  C    0.192979
    84  C   -0.348394
    85  C    0.094631
    86  H    0.110807
    87  H    0.160821
    88  C   -0.411638
    89  H    0.129325
    90  H    0.124849
    91  H    0.148659
    92  C   -0.453472
    93  H    0.133413
    94  H    0.160690
    95  H    0.138242
    96  O   -0.290713
    97  C   -0.214222
    98  H    0.118387
    99  H    0.120598
   100  H    0.137091
   101  C   -0.416973
   102  H    0.160734
   103  H    0.134496
   104  H    0.133159
   105  C   -0.416192
   106  H    0.145703
   107  H    0.133728
   108  H    0.137311
   109  O   -0.292127
   110  C   -0.221422
   111  H    0.139208
   112  H    0.117154
   113  H    0.119000
 Sum of Mulliken charges =  -0.00000

 Dipole moment (field-independent basis, Debye):
    X=             -4.9835    Y=             -2.1318    Z=              0.0331  Tot=              5.4204
 Quadrupole moment (field-independent basis, Debye-Ang):
   XX=           -413.4968   YY=           -416.8739   ZZ=           -415.8462
   XY=            -13.4314   XZ=              7.0184   YZ=              3.5875

 Summary of Natural Population Analysis:

                                       Natural Population
                Natural  -----------------------------------------------
    Atom  No    Charge         Core      Valence    Rydberg      Total
 -----------------------------------------------------------------------
      C    1   -0.20725      1.99877     4.18350    0.02498     6.20725
      C    2   -0.20346      1.99878     4.18003    0.02465     6.20346
      C    3   -0.20843      1.99877     4.18387    0.02579     6.20843
      C    4   -0.21682      1.99876     4.19339    0.02467     6.21682
      C    5   -0.21973      1.99876     4.19643    0.02454     6.21973
      H    6    0.24833      0.00000     0.75037    0.00130     0.75167
      H    7    0.24577      0.00000     0.75273    0.00150     0.75423
      H    8    0.24591      0.00000     0.75277    0.00132     0.75409
      H    9    0.24833      0.00000     0.75034    0.00133     0.75167
      H   10    0.24708      0.00000     0.75152    0.00139     0.75292
     Fe   11   -0.30517     17.99262     8.27452    0.03803    26.30517
      C   12   -0.19735      1.99876     4.17580    0.02279     6.19735
      C   13   -0.19842      1.99870     4.17676    0.02296     6.19842
      C   14   -0.02976      1.99863     3.99805    0.03308     6.02976
      C   15   -0.00392      1.99861     3.96931    0.03600     6.00392
      C   16   -0.22495      1.99865     4.20202    0.02428     6.22495
      H   17    0.24565      0.00000     0.75277    0.00157     0.75435
      H   18    0.25264      0.00000     0.74524    0.00212     0.74736
      C   19   -0.48896      1.99926     4.46352    0.02618     6.48896
      P   20    0.85697      9.99804     4.11761    0.02737    14.14303
      H   21    0.25603      0.00000     0.74199    0.00198     0.74397
      C   22   -0.61980      1.99944     4.60680    0.01357     6.61980
      H   23    0.21441      0.00000     0.78450    0.00109     0.78559
      H   24    0.22382      0.00000     0.77486    0.00132     0.77618
      H   25    0.21762      0.00000     0.78073    0.00165     0.78238
      C   26   -0.15624      1.99907     4.14061    0.01656     6.15624
      C   27   -0.14944      1.99898     4.12595    0.02452     6.14944
      C   28   -0.16026      1.99902     4.14196    0.01927     6.16026
      C   29   -0.31796      1.99905     4.28843    0.03048     6.31796
      C   30   -0.16598      1.99904     4.14777    0.01917     6.16598
      C   31   -0.15370      1.99897     4.13074    0.02399     6.15370
      H   32    0.25504      0.00000     0.74361    0.00135     0.74496
      C   33    0.94937      1.99912     3.00391    0.04760     5.05063
      H   34    0.24408      0.00000     0.75390    0.00203     0.75592
      H   35    0.25213      0.00000     0.74632    0.00155     0.74787
      C   36    0.95073      1.99911     3.00267    0.04749     5.04927
      C   37   -0.15433      1.99906     4.13866    0.01661     6.15433
      C   38   -0.14922      1.99896     4.12490    0.02536     6.14922
      C   39   -0.17909      1.99902     4.16267    0.01741     6.17909
      C   40   -0.32625      1.99908     4.29679    0.03038     6.32625
      C   41   -0.15220      1.99902     4.13491    0.01827     6.15220
      C   42   -0.13927      1.99896     4.11531    0.02500     6.13927
      H   43    0.25526      0.00000     0.74331    0.00143     0.74474
      C   44    0.95106      1.99910     3.00330    0.04654     5.04894
      H   45    0.23613      0.00000     0.76189    0.00198     0.76387
      H   46    0.24855      0.00000     0.74988    0.00157     0.75145
      C   47    0.95056      1.99912     3.00300    0.04732     5.04944
      F   48   -0.31123      1.99992     7.30349    0.00782     9.31123
      F   49   -0.31118      1.99992     7.30308    0.00818     9.31118
      F   50   -0.30768      1.99992     7.29941    0.00834     9.30768
      F   51   -0.30919      1.99992     7.30123    0.00804     9.30919
      F   52   -0.31078      1.99992     7.30231    0.00855     9.31078
      F   53   -0.31927      1.99993     7.31109    0.00825     9.31927
      F   54   -0.31017      1.99992     7.30170    0.00855     9.31017
      F   55   -0.30988      1.99992     7.30148    0.00848     9.30988
      F   56   -0.31342      1.99993     7.30521    0.00829     9.31342
      F   57   -0.30854      1.99992     7.30001    0.00860     9.30854
      F   58   -0.32157      1.99993     7.31361    0.00804     9.32157
      F   59   -0.30627      1.99992     7.29782    0.00852     9.30627
      P   60    0.83444      9.99782     4.13833    0.02942    14.16556
      C   61    0.26939      1.99864     3.71176    0.02021     5.73061
      C   62   -0.04693      1.99904     4.02941    0.01848     6.04693
      C   63   -0.21409      1.99902     4.19834    0.01673     6.21409
      C   64   -0.31245      1.99903     4.28372    0.02969     6.31245
      C   65   -0.20629      1.99903     4.19032    0.01694     6.20629
      C   66   -0.04767      1.99903     4.03048    0.01815     6.04767
      H   67    0.22216      0.00000     0.77549    0.00235     0.77784
      H   68    0.22351      0.00000     0.77465    0.00184     0.77649
      H   69    0.24799      0.00000     0.74997    0.00204     0.75201
      C   70   -0.21415      1.99919     4.19704    0.01791     6.21415
      C   71   -0.20026      1.99920     4.18344    0.01761     6.20026
      C   72   -0.20413      1.99910     4.18759    0.01744     6.20413
      C   73   -0.04027      1.99894     4.01711    0.02422     6.04027
      C   74   -0.28984      1.99893     4.26227    0.02864     6.28984
      C   75   -0.19992      1.99912     4.18078    0.02002     6.19992
      H   76    0.21932      0.00000     0.77951    0.00116     0.78068
      H   77    0.21935      0.00000     0.77946    0.00119     0.78065
      H   78    0.22400      0.00000     0.77395    0.00205     0.77600
      H   79    0.22812      0.00000     0.76981    0.00206     0.77188
      C   80    0.26731      1.99861     3.71270    0.02139     5.73269
      C   81   -0.05030      1.99902     4.03287    0.01841     6.05030
      C   82   -0.21541      1.99904     4.19914    0.01722     6.21541
      C   83   -0.32999      1.99905     4.30260    0.02833     6.32999
      C   84   -0.22506      1.99903     4.20729    0.01874     6.22506
      C   85   -0.04727      1.99901     4.02834    0.01992     6.04727
      H   86    0.22236      0.00000     0.77580    0.00183     0.77764
      H   87    0.22671      0.00000     0.77100    0.00229     0.77329
      C   88   -0.63631      1.99944     4.62486    0.01202     6.63631
      H   89    0.21836      0.00000     0.78074    0.00090     0.78164
      H   90    0.21975      0.00000     0.77888    0.00137     0.78025
      H   91    0.23456      0.00000     0.76419    0.00125     0.76544
      C   92   -0.64241      1.99943     4.63092    0.01205     6.64241
      H   93    0.22172      0.00000     0.77735    0.00093     0.77828
      H   94    0.23558      0.00000     0.76318    0.00124     0.76442
      H   95    0.22114      0.00000     0.77744    0.00142     0.77886
      O   96   -0.49896      1.99977     6.47274    0.02644     8.49896
      C   97   -0.26466      1.99930     4.25268    0.01267     6.26466
      H   98    0.17240      0.00000     0.82543    0.00217     0.82760
      H   99    0.17297      0.00000     0.82484    0.00219     0.82703
      H  100    0.19518      0.00000     0.80340    0.00142     0.80482
      C  101   -0.64423      1.99943     4.63185    0.01295     6.64423
      H  102    0.24115      0.00000     0.75763    0.00123     0.75885
      H  103    0.21861      0.00000     0.77992    0.00147     0.78139
      H  104    0.22465      0.00000     0.77435    0.00101     0.77535
      C  105   -0.64592      1.99943     4.63339    0.01310     6.64592
      H  106    0.23715      0.00000     0.76152    0.00133     0.76285
      H  107    0.22416      0.00000     0.77451    0.00133     0.77584
      H  108    0.22634      0.00000     0.77274    0.00092     0.77366
      O  109   -0.49830      1.99977     6.47188    0.02665     8.49830
      C  110   -0.26273      1.99930     4.25097    0.01246     6.26273
      H  111    0.19671      0.00000     0.80190    0.00139     0.80329
      H  112    0.17253      0.00000     0.82535    0.00211     0.82747
      H  113    0.17158      0.00000     0.82636    0.00206     0.82842
 =======================================================================
   * Total *    0.00000    169.93604   364.54258    1.52138   536.00000

 Normal termination of Gaussian 16 at Fri Mar  4 06:39:08 2022.
