 Gaussian 16, Revision B.01,

 ----------------------------------------------------------------------
 # PBE1PBE gen pseudo=read int=(grid=ultrafine) empiricaldispersion=GD3
 BJ nmr=giao
 ----------------------------------------------------------------------

 --------------
 W005_1_1 title
 --------------
 Symbolic Z-matrix:
 Charge =  0 Multiplicity = 1

 SCF Done:  E(RPBE1PBE) =  -5208.96910141     A.U. after   29 cycles

      1  C    Isotropic =   111.8285   Anisotropy =    89.6493

      2  C    Isotropic =   112.0794   Anisotropy =    90.0140

      3  C    Isotropic =   111.9792   Anisotropy =    90.9640

      4  C    Isotropic =   110.7041   Anisotropy =    91.9842

      5  C    Isotropic =   113.1548   Anisotropy =    90.0382

      6  H    Isotropic =    27.4336   Anisotropy =     6.9690

      7  H    Isotropic =    27.5135   Anisotropy =     6.6057

      8  H    Isotropic =    27.2289   Anisotropy =     3.9662

      9  H    Isotropic =    27.1061   Anisotropy =     3.8164

     10  H    Isotropic =    27.2639   Anisotropy =     4.6588

     11  Fe   Isotropic = -6195.4214   Anisotropy =  8295.2629

     12  C    Isotropic =   111.4638   Anisotropy =    94.4173

     13  C    Isotropic =   105.9109   Anisotropy =    91.4655

     14  C    Isotropic =    92.2593   Anisotropy =    95.5926

     15  C    Isotropic =    88.4162   Anisotropy =    93.7942

     16  C    Isotropic =   109.4333   Anisotropy =   100.6086

     17  H    Isotropic =    27.3622   Anisotropy =     7.2487

     18  H    Isotropic =    26.8791   Anisotropy =     3.1460

     19  C    Isotropic =   149.6151   Anisotropy =    23.9596

     20  P    Isotropic =   214.5602   Anisotropy =   197.2384

     21  H    Isotropic =    27.0531   Anisotropy =     6.3279

     22  C    Isotropic =   169.7558   Anisotropy =    18.8593

     23  H    Isotropic =    29.8067   Anisotropy =    11.0000

     24  H    Isotropic =    29.3907   Anisotropy =     9.9167

     25  H    Isotropic =    28.6113   Anisotropy =     5.7909

     26  C    Isotropic =    54.4551   Anisotropy =   190.0379

     27  C    Isotropic =    47.3499   Anisotropy =   160.5186

     28  C    Isotropic =    36.4155   Anisotropy =   198.7286

     29  C    Isotropic =    38.4286   Anisotropy =   186.4111

     30  C    Isotropic =    44.3572   Anisotropy =   193.9669

     31  C    Isotropic =    48.1525   Anisotropy =   158.7557

     32  H    Isotropic =    23.3740   Anisotropy =     9.6131

     33  C    Isotropic =    48.4124   Anisotropy =    15.5246

     34  H    Isotropic =    21.4252   Anisotropy =    17.7229

     35  H    Isotropic =    24.0435   Anisotropy =    15.8207

     36  C    Isotropic =    48.8182   Anisotropy =    14.0974

     37  C    Isotropic =    55.7413   Anisotropy =   191.6335

     38  C    Isotropic =    46.7912   Anisotropy =   168.0827

     39  C    Isotropic =    53.4722   Anisotropy =   200.3394

     40  C    Isotropic =    35.5294   Anisotropy =   207.2539

     41  C    Isotropic =    45.5311   Anisotropy =   201.2198

     42  C    Isotropic =    48.9809   Anisotropy =   162.9299

     43  H    Isotropic =    23.8696   Anisotropy =     9.4752

     44  C    Isotropic =    48.6277   Anisotropy =    12.4711

     45  H    Isotropic =    23.8777   Anisotropy =    10.7322

     46  H    Isotropic =    23.7738   Anisotropy =     9.3062

     47  C    Isotropic =    49.0062   Anisotropy =    15.1489

     48  F    Isotropic =   248.4920   Anisotropy =   136.9971

     49  F    Isotropic =   239.1118   Anisotropy =   127.9427

     50  F    Isotropic =   215.3845   Anisotropy =   145.0750

     51  F    Isotropic =   254.5493   Anisotropy =   117.4522

     52  F    Isotropic =   225.1270   Anisotropy =   152.7311

     53  F    Isotropic =   225.7874   Anisotropy =   151.9874

     54  F    Isotropic =   243.2926   Anisotropy =   140.3921

     55  F    Isotropic =   245.2397   Anisotropy =   142.0885

     56  F    Isotropic =   221.9296   Anisotropy =   144.2622

     57  F    Isotropic =   219.9355   Anisotropy =   148.9463

     58  F    Isotropic =   245.3391   Anisotropy =   138.7898

     59  F    Isotropic =   247.0629   Anisotropy =   139.2732

     60  P    Isotropic =   239.3335   Anisotropy =   108.4181

     61  C    Isotropic =    17.6044   Anisotropy =   131.7842

     62  C    Isotropic =    47.6552   Anisotropy =   173.0229

     63  C    Isotropic =    35.5921   Anisotropy =   183.8841

     64  C    Isotropic =    50.2333   Anisotropy =   160.8920

     65  C    Isotropic =    45.4300   Anisotropy =   160.5649

     66  C    Isotropic =    49.9741   Anisotropy =   167.4186

     67  H    Isotropic =    23.1014   Anisotropy =    14.1164

     68  H    Isotropic =    25.0705   Anisotropy =    16.7108

     69  Cl   Isotropic =   866.6283   Anisotropy =   352.1442

     70  Cl   Isotropic =   910.8215   Anisotropy =   538.6219

     71  H    Isotropic =    27.4829   Anisotropy =     6.2062

     72  C    Isotropic =    51.0705   Anisotropy =   196.8141

     73  C    Isotropic =    48.6673   Anisotropy =   195.8276

     74  C    Isotropic =    43.6219   Anisotropy =   171.5737

     75  C    Isotropic =    37.1356   Anisotropy =   198.6909

     76  C    Isotropic =    38.7276   Anisotropy =   187.3707

     77  C    Isotropic =    47.8916   Anisotropy =   200.7786

     78  H    Isotropic =    24.6963   Anisotropy =     4.0940

     79  H    Isotropic =    23.5728   Anisotropy =     3.4453

     80  H    Isotropic =    22.5618   Anisotropy =     7.4962

     81  H    Isotropic =    24.7439   Anisotropy =     7.6417

     82  C    Isotropic =    15.6192   Anisotropy =   137.7281

     83  C    Isotropic =    43.9760   Anisotropy =   177.1782

     84  C    Isotropic =    35.1287   Anisotropy =   151.7646

     85  C    Isotropic =    51.5782   Anisotropy =   166.7332

     86  C    Isotropic =    42.4051   Anisotropy =   168.9429

     87  C    Isotropic =    45.6088   Anisotropy =   176.7776

     88  H    Isotropic =    21.6074   Anisotropy =    15.7224

     89  H    Isotropic =    24.6538   Anisotropy =    13.3524

     90  Pd   Isotropic =  -166.4843   Anisotropy =   230.3687

     91  C    Isotropic =   169.5656   Anisotropy =    28.6290

     92  H    Isotropic =    29.2402   Anisotropy =     6.4005

     93  H    Isotropic =    28.8236   Anisotropy =     8.5458

     94  H    Isotropic =    29.4224   Anisotropy =     8.8032

     95  C    Isotropic =   167.3985   Anisotropy =    28.3650

     96  H    Isotropic =    29.8591   Anisotropy =     6.7078

     97  H    Isotropic =    29.1961   Anisotropy =     9.4750

     98  H    Isotropic =    28.7700   Anisotropy =     8.7047

     99  O    Isotropic =   255.6816   Anisotropy =   112.6083

    100  C    Isotropic =   126.5867   Anisotropy =    84.6616

    101  H    Isotropic =    28.1646   Anisotropy =     8.8751

    102  H    Isotropic =    27.7309   Anisotropy =     8.2479

    103  H    Isotropic =    27.6125   Anisotropy =    10.8678

    104  C    Isotropic =   167.0685   Anisotropy =    27.2133

    105  H    Isotropic =    28.9291   Anisotropy =     9.7680

    106  H    Isotropic =    28.9731   Anisotropy =     5.9314

    107  H    Isotropic =    28.5928   Anisotropy =     9.9402

    108  C    Isotropic =   169.0939   Anisotropy =    30.7353

    109  H    Isotropic =    28.6442   Anisotropy =     8.7532

    110  H    Isotropic =    29.7637   Anisotropy =     7.6404

    111  H    Isotropic =    29.2263   Anisotropy =     7.9860

    112  O    Isotropic =   252.1242   Anisotropy =   121.2228

    113  C    Isotropic =   126.2172   Anisotropy =    78.9209

    114  H    Isotropic =    27.7331   Anisotropy =     6.8820

    115  H    Isotropic =    27.6325   Anisotropy =     5.5144

    116  H    Isotropic =    27.5449   Anisotropy =    10.3816

 Normal termination of Gaussian 16 at Fri Mar  4 05:37:35 2022.
 Gaussian 16:  ES64L-G16RevB.01 20-Dec-2017

 ----------------------------------------------------------------------
 # PBE1PBE gen pseudo=read int=(grid=ultrafine) empiricaldispersion=GD3
 BJ pop=nbo guess=read geom=check
 ----------------------------------------------------------------------

 --------------
 W005_1_1 title
 --------------
 Structure from the checkpoint file:  "W005_1_1_SPE.chk"
 Charge =  0 Multiplicity = 1

                         Standard orientation:
 ---------------------------------------------------------------------
 Center     Atomic      Atomic             Coordinates (Angstroms)
 Number     Number       Type             X           Y           Z
 ---------------------------------------------------------------------
      1          6           0       -1.609139   -6.169637   -0.234881
      2          6           0       -2.950931   -6.103240   -0.746123
      3          6           0       -3.781780   -5.503854    0.260628
      4          6           0       -2.956429   -5.202470    1.395801
      5          6           0       -1.610824   -5.610556    1.090573
      6          1           0       -3.269415   -6.400073   -1.745960
      7          1           0       -4.842404   -5.270642    0.161207
      8          1           0       -3.296047   -4.720352    2.313099
      9          1           0       -0.740540   -5.502323    1.739944
     10          1           0       -0.738583   -6.545542   -0.773571
     11         26           0       -2.262110   -4.234146   -0.279017
     12          6           0       -2.796234   -3.075512   -1.886304
     13          6           0       -3.103726   -2.407330   -0.658063
     14          6           0       -1.883798   -2.262024    0.099116
     15          6           0       -0.814188   -2.871131   -0.684117
     16          6           0       -1.394162   -3.351878   -1.909631
     17          1           0       -3.514268   -3.361671   -2.654488
     18          1           0       -0.855799   -3.855741   -2.709981
     19          6           0        0.654481   -2.845984   -0.336242
     20         15           0        1.153004   -1.021891   -0.546480
     21          1           0        0.764488   -3.095882    0.731524
     22          6           0        1.504527   -3.805973   -1.177788
     23          1           0        2.545515   -3.845940   -0.821530
     24          1           0        1.074203   -4.819180   -1.101599
     25          1           0        1.510836   -3.497577   -2.235118
     26          6           0        5.512725   -0.168004   -1.921625
     27          6           0        4.427736    0.508715   -2.494512
     28          6           0        3.114491    0.185025   -2.131543
     29          6           0        2.877759   -0.805817   -1.164008
     30          6           0        3.963012   -1.466085   -0.566465
     31          6           0        5.273544   -1.159736   -0.961276
     32          1           0        6.536125    0.081038   -2.212848
     33          6           0        4.664548    1.559215   -3.553405
     34          1           0        2.270108    0.693971   -2.602769
     35          1           0        3.804382   -2.210068    0.219636
     36          6           0        6.432830   -1.837276   -0.272649
     37          6           0        2.230207    0.713883    3.673628
     38          6           0        1.981911   -0.656657    3.541918
     39          6           0        1.634906   -1.206754    2.301060
     40          6           0        1.521480   -0.388381    1.166357
     41          6           0        1.789800    0.986746    1.296554
     42          6           0        2.130699    1.531077    2.541486
     43          1           0        2.488150    1.141933    4.645719
     44          6           0        2.051270   -1.524198    4.774372
     45          1           0        1.432810   -2.277336    2.253867
     46          1           0        1.717014    1.646744    0.428872
     47          6           0        2.282391    3.023750    2.684594
     48          9           0        3.047063    3.361429    3.755041
     49          9           0        2.847803    3.586188    1.579306
     50          9           0        1.064180    3.621128    2.858871
     51          9           0        1.674115   -2.806812    4.524900
     52          9           0        3.305511   -1.555391    5.295804
     53          9           0        1.228283   -1.042387    5.753561
     54          9           0        3.681039    2.504225   -3.547260
     55          9           0        5.851361    2.198995   -3.361571
     56          9           0        4.693560    1.017451   -4.796854
     57          9           0        6.801887   -1.162032    0.852457
     58          9           0        6.113567   -3.104496    0.110811
     59          9           0        7.526090   -1.907877   -1.076006
     60         15           0       -1.735926    0.849795   -0.245517
     61          6           0       -6.300106    1.558594   -0.579833
     62          6           0       -5.426865    2.197804   -1.487183
     63          6           0       -4.050736    1.952365   -1.367506
     64          6           0       -3.550944    1.082017   -0.381054
     65          6           0       -4.445053    0.458910    0.509781
     66          6           0       -5.826940    0.685167    0.422619
     67          1           0       -3.362528    2.421918   -2.074451
     68          1           0       -4.070596   -0.203493    1.296090
     69         17           0       -2.031830    0.615208   -3.520075
     70         17           0        0.736197   -1.283118   -3.641069
     71          1           0       -4.090834   -2.080691   -0.334107
     72          6           0       -1.244275   -0.073568    3.769221
     73          6           0       -1.358583   -1.468981    3.788192
     74          6           0       -1.571228   -2.163949    2.591801
     75          6           0       -1.691839   -1.494063    1.358840
     76          6           0       -1.577064   -0.072872    1.350542
     77          6           0       -1.349762    0.617308    2.555768
     78          1           0       -1.044305    0.476041    4.694052
     79          1           0       -1.250117   -2.017441    4.728774
     80          1           0       -1.643132   -3.253671    2.587006
     81          1           0       -1.214068    1.702671    2.540497
     82          6           0       -0.157963    5.163114    0.324075
     83          6           0        0.500217    4.291532   -0.570806
     84          6           0       -0.011134    2.994101   -0.716846
     85          6           0       -1.134991    2.560798    0.010905
     86          6           0       -1.802534    3.470057    0.852710
     87          6           0       -1.320398    4.776258    1.030428
     88          1           0        0.452277    2.302514   -1.433255
     89          1           0       -2.724879    3.168107    1.362493
     90         46           0       -0.474681   -0.123986   -1.910572
     91          6           0       -5.955548    3.087532   -2.585609
     92          1           0       -5.298503    3.040731   -3.469020
     93          1           0       -6.971317    2.779944   -2.881615
     94          1           0       -6.005793    4.146601   -2.269549
     95          6           0       -6.796583    0.006766    1.359560
     96          1           0       -6.274698   -0.715513    2.008519
     97          1           0       -7.315037    0.732842    2.011788
     98          1           0       -7.582186   -0.526716    0.798334
     99          8           0       -7.672981    1.727920   -0.693730
    100          6           0       -8.150246    2.943434   -0.104631
    101          1           0       -7.911049    2.987008    0.975668
    102          1           0       -7.723580    3.835793   -0.600207
    103          1           0       -9.242995    2.942468   -0.237035
    104          6           0        1.706206    4.754863   -1.349021
    105          1           0        2.078709    3.961234   -2.016389
    106          1           0        2.531340    5.042060   -0.674458
    107          1           0        1.468677    5.643311   -1.958014
    108          6           0       -2.033379    5.753870    1.931378
    109          1           0       -1.944071    6.780635    1.542015
    110          1           0       -3.101296    5.497106    2.023962
    111          1           0       -1.605641    5.751554    2.951556
    112          8           0        0.310224    6.461496    0.438722
    113          6           0        1.168423    6.669861    1.571243
    114          1           0        0.648756    6.452083    2.522833
    115          1           0        2.071578    6.036823    1.511304
    116          1           0        1.455722    7.731611    1.543698
 ---------------------------------------------------------------------

 SCF Done:  E(RPBE1PBE) =  -5208.96910141     A.U. after    1 cycles

 The electronic state is 1-A.
 Alpha  occ. eigenvalues -- -101.62616-101.61981 -77.28241 -77.27257 -24.83033
 Alpha  occ. eigenvalues --  -24.82851 -24.82729 -24.82505 -24.82434 -24.82376
 Alpha  occ. eigenvalues --  -24.81732 -24.81685 -24.81312 -24.81088 -24.81032
 Alpha  occ. eigenvalues --  -24.80589 -19.23791 -19.23522 -10.50394 -10.50389
 Alpha  occ. eigenvalues --  -10.49333 -10.48733 -10.29744 -10.29704 -10.29674
 Alpha  occ. eigenvalues --  -10.29406 -10.29051 -10.29043 -10.28931 -10.28776
 Alpha  occ. eigenvalues --  -10.28662 -10.28527 -10.28444 -10.28324 -10.28203
 Alpha  occ. eigenvalues --  -10.28196 -10.28162 -10.28157 -10.27684 -10.27592
 Alpha  occ. eigenvalues --  -10.27397 -10.26262 -10.26135 -10.26134 -10.25995
 Alpha  occ. eigenvalues --  -10.25925 -10.25827 -10.25774 -10.25656 -10.25496
 Alpha  occ. eigenvalues --  -10.25459 -10.25156 -10.25001 -10.24966 -10.24923
 Alpha  occ. eigenvalues --  -10.24894 -10.24840 -10.24777 -10.24738 -10.24714
 Alpha  occ. eigenvalues --  -10.24649 -10.24412 -10.24310 -10.24252 -10.23733
 Alpha  occ. eigenvalues --  -10.23577 -10.23516 -10.23158 -10.22729 -10.22381
 Alpha  occ. eigenvalues --   -9.45139  -9.44486  -7.18315  -7.17867  -7.17831
 Alpha  occ. eigenvalues --   -7.17705  -7.17202  -7.17149  -6.67429  -6.66420
 Alpha  occ. eigenvalues --   -4.81048  -4.80966  -4.80747  -4.80018  -4.79985
 Alpha  occ. eigenvalues --   -4.79774  -3.61195  -3.52712  -2.25794  -2.21472
 Alpha  occ. eigenvalues --   -2.21428  -2.20515  -2.20340  -2.16919  -1.36253
 Alpha  occ. eigenvalues --   -1.36208  -1.35193  -1.34523  -1.28024  -1.27979
 Alpha  occ. eigenvalues --   -1.27531  -1.27518  -1.26925  -1.26511  -1.26211
 Alpha  occ. eigenvalues --   -1.25881  -1.09134  -1.08836  -0.94637  -0.93517
 Alpha  occ. eigenvalues --   -0.93432  -0.91538  -0.90579  -0.89971  -0.89161
 Alpha  occ. eigenvalues --   -0.86080  -0.85859  -0.84921  -0.83078  -0.82513
 Alpha  occ. eigenvalues --   -0.82425  -0.82329  -0.81660  -0.81307  -0.79353
 Alpha  occ. eigenvalues --   -0.78950  -0.76261  -0.75598  -0.75461  -0.74993
 Alpha  occ. eigenvalues --   -0.74405  -0.74385  -0.74369  -0.74319  -0.74146
 Alpha  occ. eigenvalues --   -0.74027  -0.73883  -0.73538  -0.72074  -0.71807
 Alpha  occ. eigenvalues --   -0.71639  -0.70905  -0.69836  -0.68601  -0.67895
 Alpha  occ. eigenvalues --   -0.67713  -0.67279  -0.66876  -0.65384  -0.64459
 Alpha  occ. eigenvalues --   -0.63709  -0.63593  -0.63333  -0.63208  -0.63145
 Alpha  occ. eigenvalues --   -0.62332  -0.62143  -0.62080  -0.61639  -0.61449
 Alpha  occ. eigenvalues --   -0.61179  -0.61063  -0.60785  -0.58810  -0.58007
 Alpha  occ. eigenvalues --   -0.57702  -0.57528  -0.57103  -0.56841  -0.56387
 Alpha  occ. eigenvalues --   -0.56343  -0.56082  -0.55469  -0.54684  -0.54565
 Alpha  occ. eigenvalues --   -0.54066  -0.53928  -0.52797  -0.52638  -0.52418
 Alpha  occ. eigenvalues --   -0.52067  -0.51647  -0.51233  -0.51114  -0.50997
 Alpha  occ. eigenvalues --   -0.50778  -0.50390  -0.49991  -0.49721  -0.49520
 Alpha  occ. eigenvalues --   -0.49343  -0.48933  -0.48854  -0.48725  -0.48509
 Alpha  occ. eigenvalues --   -0.48190  -0.47886  -0.47504  -0.47436  -0.47041
 Alpha  occ. eigenvalues --   -0.46992  -0.46622  -0.46446  -0.46090  -0.46069
 Alpha  occ. eigenvalues --   -0.45883  -0.45843  -0.45728  -0.45594  -0.45508
 Alpha  occ. eigenvalues --   -0.45363  -0.45330  -0.45197  -0.44901  -0.44830
 Alpha  occ. eigenvalues --   -0.44563  -0.44432  -0.44356  -0.44163  -0.44051
 Alpha  occ. eigenvalues --   -0.43893  -0.43832  -0.43673  -0.43633  -0.43476
 Alpha  occ. eigenvalues --   -0.43443  -0.43178  -0.43051  -0.43001  -0.42974
 Alpha  occ. eigenvalues --   -0.42755  -0.42419  -0.42304  -0.42130  -0.42016
 Alpha  occ. eigenvalues --   -0.41561  -0.41017  -0.40958  -0.40529  -0.40243
 Alpha  occ. eigenvalues --   -0.40202  -0.40097  -0.39800  -0.39660  -0.39439
 Alpha  occ. eigenvalues --   -0.39316  -0.39196  -0.38817  -0.38507  -0.38299
 Alpha  occ. eigenvalues --   -0.38015  -0.37878  -0.37477  -0.37373  -0.37296
 Alpha  occ. eigenvalues --   -0.37061  -0.36658  -0.36173  -0.35740  -0.35218
 Alpha  occ. eigenvalues --   -0.34220  -0.33412  -0.32581  -0.32231  -0.31797
 Alpha  occ. eigenvalues --   -0.31339  -0.30829  -0.30541  -0.30260  -0.29944
 Alpha  occ. eigenvalues --   -0.29529  -0.29376  -0.29060  -0.28767  -0.28339
 Alpha  occ. eigenvalues --   -0.27508  -0.27203  -0.27128  -0.26977  -0.26474
 Alpha  occ. eigenvalues --   -0.26166  -0.26089  -0.25710  -0.25280  -0.25054
 Alpha  occ. eigenvalues --   -0.24474  -0.24000  -0.23234  -0.23156
 Alpha virt. eigenvalues --   -0.09047  -0.07971  -0.07369  -0.06365  -0.05708
 Alpha virt. eigenvalues --   -0.05362  -0.04607  -0.04019  -0.02645  -0.02451
 Alpha virt. eigenvalues --   -0.01420  -0.01145  -0.01132  -0.00610   0.00357

 Mulliken charges:
               1
     1  C   -0.065951
     2  C   -0.047564
     3  C    0.025779
     4  C   -0.102998
     5  C   -0.151471
     6  H    0.126370
     7  H    0.124057
     8  H    0.127768
     9  H    0.123355
    10  H    0.127419
    11  Fe  -0.462504
    12  C   -0.126069
    13  C   -0.007600
    14  C    0.381953
    15  C    0.142705
    16  C    0.017573
    17  H    0.115254
    18  H    0.140427
    19  C   -0.099646
    20  P    0.182200
    21  H    0.085135
    22  C   -0.404621
    23  H    0.125951
    24  H    0.138398
    25  H    0.177581
    26  C   -0.276643
    27  C    0.124854
    28  C   -0.224461
    29  C    0.087748
    30  C   -0.359907
    31  C    0.140972
    32  H    0.166370
    33  C    0.427097
    34  H    0.237590
    35  H    0.163800
    36  C    0.434753
    37  C   -0.301545
    38  C    0.106200
    39  C   -0.271166
    40  C    0.293970
    41  C   -0.295125
    42  C    0.105644
    43  H    0.157116
    44  C    0.449052
    45  H    0.146538
    46  H    0.178353
    47  C    0.446677
    48  F   -0.159451
    49  F   -0.171361
    50  F   -0.164284
    51  F   -0.167914
    52  F   -0.153467
    53  F   -0.169828
    54  F   -0.160064
    55  F   -0.165161
    56  F   -0.147363
    57  F   -0.158044
    58  F   -0.165448
    59  F   -0.159503
    60  P    0.338259
    61  C    0.197226
    62  C    0.119558
    63  C   -0.366897
    64  C    0.184032
    65  C   -0.376746
    66  C    0.083964
    67  H    0.163971
    68  H    0.169167
    69  Cl  -0.420058
    70  Cl  -0.398416
    71  H    0.133717
    72  C   -0.204053
    73  C   -0.099877
    74  C   -0.283916
    75  C   -0.145114
    76  C   -0.218220
    77  C    0.011753
    78  H    0.119028
    79  H    0.129781
    80  H    0.115422
    81  H    0.163130
    82  C    0.239351
    83  C    0.087699
    84  C   -0.322965
    85  C    0.018786
    86  C   -0.383594
    87  C    0.120486
    88  H    0.207606
    89  H    0.159783
    90  Pd   0.009114
    91  C   -0.468382
    92  H    0.162571
    93  H    0.160778
    94  H    0.137841
    95  C   -0.412101
    96  H    0.130475
    97  H    0.126272
    98  H    0.148824
    99  O   -0.283525
   100  C   -0.218426
   101  H    0.117478
   102  H    0.125427
   103  H    0.141204
   104  C   -0.409211
   105  H    0.150450
   106  H    0.126729
   107  H    0.149198
   108  C   -0.454557
   109  H    0.164500
   110  H    0.138783
   111  H    0.140756
   112  O   -0.283627
   113  C   -0.217634
   114  H    0.117669
   115  H    0.123154
   116  H    0.143879
 Sum of Mulliken charges =  -0.00000

 Dipole moment (field-independent basis, Debye):
    X=             -3.8985    Y=              1.3469    Z=              9.4227  Tot=             10.2859
 Quadrupole moment (field-independent basis, Debye-Ang):
   XX=           -451.5344   YY=           -439.1095   ZZ=           -495.2141
   XY=             -6.1438   XZ=             -9.9624   YZ=             14.0727

 Summary of Natural Population Analysis:

                                       Natural Population
                Natural  -----------------------------------------------
    Atom  No    Charge         Core      Valence    Rydberg      Total
 -----------------------------------------------------------------------
      C    1   -0.20560      1.99875     4.18147    0.02538     6.20560
      C    2   -0.20240      1.99877     4.17825    0.02539     6.20240
      C    3   -0.20467      1.99877     4.18055    0.02535     6.20467
      C    4   -0.21379      1.99876     4.18979    0.02525     6.21379
      C    5   -0.21887      1.99874     4.19540    0.02473     6.21887
      H    6    0.24977      0.00000     0.74891    0.00132     0.75023
      H    7    0.24884      0.00000     0.74986    0.00130     0.75116
      H    8    0.24464      0.00000     0.75404    0.00133     0.75536
      H    9    0.24241      0.00000     0.75627    0.00132     0.75759
      H   10    0.24606      0.00000     0.75253    0.00142     0.75394
     Fe   11   -0.30693     17.99201     8.27642    0.03849    26.30693
      C   12   -0.17671      1.99880     4.15561    0.02230     6.17671
      C   13   -0.18744      1.99871     4.16481    0.02392     6.18744
      C   14   -0.06957      1.99859     4.03688    0.03410     6.06957
      C   15   -0.01694      1.99860     3.97997    0.03837     6.01694
      C   16   -0.18049      1.99872     4.15762    0.02415     6.18049
      H   17    0.25245      0.00000     0.74623    0.00132     0.74755
      H   18    0.26483      0.00000     0.73352    0.00166     0.73517
      C   19   -0.49465      1.99922     4.46599    0.02944     6.49465
      P   20    1.18039      9.99549     3.77284    0.05128    13.81961
      H   21    0.23670      0.00000     0.76089    0.00242     0.76330
      C   22   -0.63000      1.99944     4.61702    0.01354     6.63000
      H   23    0.21724      0.00000     0.78183    0.00093     0.78276
      H   24    0.22752      0.00000     0.77122    0.00126     0.77248
      H   25    0.25507      0.00000     0.74381    0.00112     0.74493
      C   26   -0.13765      1.99907     4.12248    0.01610     6.13765
      C   27   -0.15076      1.99897     4.12702    0.02477     6.15076
      C   28   -0.12593      1.99902     4.10844    0.01846     6.12593
      C   29   -0.33819      1.99899     4.30453    0.03467     6.33819
      C   30   -0.16122      1.99902     4.14207    0.02013     6.16122
      C   31   -0.15174      1.99898     4.12793    0.02484     6.15174
      H   32    0.25476      0.00000     0.74393    0.00132     0.74524
      C   33    0.95193      1.99913     3.00140    0.04754     5.04807
      H   34    0.26909      0.00000     0.72937    0.00154     0.73091
      H   35    0.23556      0.00000     0.76227    0.00217     0.76444
      C   36    0.95078      1.99913     3.00273    0.04737     5.04922
      C   37   -0.14761      1.99906     4.13261    0.01595     6.14761
      C   38   -0.14129      1.99895     4.11703    0.02531     6.14129
      C   39   -0.16527      1.99899     4.14645    0.01982     6.16527
      C   40   -0.32850      1.99902     4.29271    0.03678     6.32850
      C   41   -0.15775      1.99900     4.13969    0.01905     6.15775
      C   42   -0.14985      1.99895     4.12628    0.02462     6.14985
      H   43    0.25296      0.00000     0.74565    0.00139     0.74704
      C   44    0.95147      1.99910     3.00294    0.04650     5.04853
      H   45    0.23857      0.00000     0.75966    0.00177     0.76143
      H   46    0.25639      0.00000     0.74156    0.00205     0.74361
      C   47    0.95360      1.99911     2.99986    0.04743     5.04640
      F   48   -0.30892      1.99992     7.30102    0.00798     9.30892
      F   49   -0.31335      1.99992     7.30494    0.00848     9.31335
      F   50   -0.31594      1.99992     7.30747    0.00854     9.31594
      F   51   -0.31197      1.99992     7.30394    0.00811     9.31197
      F   52   -0.30548      1.99992     7.29744    0.00811     9.30548
      F   53   -0.31701      1.99993     7.30880    0.00829     9.31701
      F   54   -0.31463      1.99992     7.30574    0.00897     9.31463
      F   55   -0.31319      1.99993     7.30482    0.00845     9.31319
      F   56   -0.30151      1.99992     7.29306    0.00853     9.30151
      F   57   -0.31128      1.99992     7.30306    0.00829     9.31128
      F   58   -0.31342      1.99993     7.30523    0.00827     9.31342
      F   59   -0.30825      1.99992     7.29981    0.00851     9.30825
      P   60    1.22012      9.99530     3.73119    0.05339    13.77988
      C   61    0.29172      1.99864     3.68914    0.02050     5.70828
      C   62   -0.05269      1.99903     4.03623    0.01743     6.05269
      C   63   -0.16357      1.99904     4.14696    0.01758     6.16357
      C   64   -0.35958      1.99899     4.32776    0.03282     6.35958
      C   65   -0.20588      1.99902     4.18856    0.01830     6.20588
      C   66   -0.06036      1.99903     4.04313    0.01820     6.06036
      H   67    0.25073      0.00000     0.74754    0.00173     0.74927
      H   68    0.22454      0.00000     0.77273    0.00272     0.77546
     Cl   69   -0.38259      9.99961     7.37459    0.00839    17.38259
     Cl   70   -0.41781      9.99962     7.40982    0.00837    17.41781
      H   71    0.25585      0.00000     0.74212    0.00203     0.74415
      C   72   -0.20815      1.99920     4.19087    0.01808     6.20815
      C   73   -0.20019      1.99920     4.18300    0.01798     6.20019
      C   74   -0.21078      1.99908     4.19363    0.01807     6.21078
      C   75   -0.03022      1.99893     4.00703    0.02427     6.03022
      C   76   -0.32810      1.99895     4.29346    0.03569     6.32810
      C   77   -0.20907      1.99908     4.18931    0.02068     6.20907
      H   78    0.22968      0.00000     0.76906    0.00126     0.77032
      H   79    0.23113      0.00000     0.76761    0.00126     0.76887
      H   80    0.23113      0.00000     0.76665    0.00222     0.76887
      H   81    0.23951      0.00000     0.75861    0.00187     0.76049
      C   82    0.30360      1.99864     3.67778    0.01999     5.69640
      C   83   -0.04526      1.99901     4.02776    0.01848     6.04526
      C   84   -0.19089      1.99903     4.17318    0.01867     6.19089
      C   85   -0.37474      1.99901     4.34381    0.03192     6.37474
      C   86   -0.19653      1.99903     4.17828    0.01922     6.19653
      C   87   -0.04874      1.99903     4.03162    0.01809     6.04874
      H   88    0.23490      0.00000     0.76282    0.00228     0.76510
      H   89    0.22725      0.00000     0.77064    0.00211     0.77275
     Pd   90   -0.19798     35.98800    10.17885    0.03113    46.19798
      C   91   -0.64718      1.99943     4.63474    0.01301     6.64718
      H   92    0.23726      0.00000     0.76174    0.00099     0.76274
      H   93    0.23465      0.00000     0.76414    0.00122     0.76535
      H   94    0.22088      0.00000     0.77772    0.00141     0.77912
      C   95   -0.63345      1.99943     4.62219    0.01182     6.63345
      H   96    0.21754      0.00000     0.78163    0.00083     0.78246
      H   97    0.22207      0.00000     0.77663    0.00130     0.77793
      H   98    0.23536      0.00000     0.76341    0.00123     0.76464
      O   99   -0.49540      1.99977     6.46923    0.02640     8.49540
      C  100   -0.26549      1.99930     4.25355    0.01264     6.26549
      H  101    0.17125      0.00000     0.82661    0.00214     0.82875
      H  102    0.17574      0.00000     0.82211    0.00215     0.82426
      H  103    0.19784      0.00000     0.80078    0.00138     0.80216
      C  104   -0.64033      1.99943     4.62807    0.01284     6.64033
      H  105    0.22953      0.00000     0.76966    0.00082     0.77047
      H  106    0.22717      0.00000     0.77158    0.00126     0.77283
      H  107    0.23866      0.00000     0.76009    0.00125     0.76134
      C  108   -0.64339      1.99943     4.63206    0.01190     6.64339
      H  109    0.23949      0.00000     0.75933    0.00118     0.76051
      H  110    0.22440      0.00000     0.77467    0.00093     0.77560
      H  111    0.22347      0.00000     0.77512    0.00141     0.77653
      O  112   -0.49616      1.99977     6.47073    0.02567     8.49616
      C  113   -0.26613      1.99929     4.25447    0.01237     6.26613
      H  114    0.17472      0.00000     0.82312    0.00216     0.82528
      H  115    0.18045      0.00000     0.81756    0.00199     0.81955
      H  116    0.19781      0.00000     0.80085    0.00133     0.80219
 =======================================================================
   * Total *    0.00000    225.91726   388.42919    1.65356   616.00000

 Normal termination of Gaussian 16 at Fri Mar  4 05:46:46 2022.
