 Gaussian 16, Revision B.01,

 ----------------------------------------------------------------------
 # PBE1PBE gen pseudo=read int=(grid=ultrafine) empiricaldispersion=GD3
 BJ nmr=giao
 ----------------------------------------------------------------------

 --------------
 W005_1_2 title
 --------------
 Symbolic Z-matrix:
 Charge =  0 Multiplicity = 1

 SCF Done:  E(RPBE1PBE) =  -5208.95896456     A.U. after   28 cycles

      1  C    Isotropic =   110.2537   Anisotropy =    92.9934

      2  C    Isotropic =   112.4042   Anisotropy =    90.4456

      3  C    Isotropic =   112.4956   Anisotropy =    88.2261

      4  C    Isotropic =   112.0954   Anisotropy =    90.1227

      5  C    Isotropic =   111.5930   Anisotropy =    92.0655

      6  H    Isotropic =    27.3739   Anisotropy =     6.0557

      7  H    Isotropic =    27.3654   Anisotropy =     6.9094

      8  H    Isotropic =    27.1641   Anisotropy =     4.8552

      9  H    Isotropic =    27.0818   Anisotropy =     4.2467

     10  H    Isotropic =    27.2738   Anisotropy =     3.6471

     11  Fe   Isotropic = -6313.5139   Anisotropy =  8471.9280

     12  C    Isotropic =   111.5468   Anisotropy =    95.8817

     13  C    Isotropic =   102.1215   Anisotropy =    83.2693

     14  C    Isotropic =    88.7177   Anisotropy =    97.1383

     15  C    Isotropic =    89.3021   Anisotropy =    95.1993

     16  C    Isotropic =   109.2285   Anisotropy =    96.0613

     17  H    Isotropic =    27.0815   Anisotropy =     7.6839

     18  H    Isotropic =    26.7257   Anisotropy =     3.7099

     19  C    Isotropic =   140.7584   Anisotropy =    35.3708

     20  P    Isotropic =   203.5818   Anisotropy =   168.7285

     21  H    Isotropic =    27.5151   Anisotropy =     4.0610

     22  C    Isotropic =   167.3580   Anisotropy =    17.3071

     23  H    Isotropic =    29.7228   Anisotropy =    10.5304

     24  H    Isotropic =    29.0849   Anisotropy =    10.3642

     25  H    Isotropic =    28.9644   Anisotropy =     3.8989

     26  C    Isotropic =    53.9150   Anisotropy =   192.4649

     27  C    Isotropic =    48.4447   Anisotropy =   160.0374

     28  C    Isotropic =    32.0278   Anisotropy =   205.7785

     29  C    Isotropic =    37.9252   Anisotropy =   187.8094

     30  C    Isotropic =    41.7242   Anisotropy =   197.6845

     31  C    Isotropic =    47.5355   Anisotropy =   161.9395

     32  H    Isotropic =    23.1867   Anisotropy =     9.1346

     33  C    Isotropic =    48.4019   Anisotropy =    14.8824

     34  H    Isotropic =    21.3795   Anisotropy =    18.0299

     35  H    Isotropic =    23.9545   Anisotropy =    14.8914

     36  C    Isotropic =    48.8516   Anisotropy =    13.2190

     37  C    Isotropic =    55.6425   Anisotropy =   193.5684

     38  C    Isotropic =    49.9980   Anisotropy =   160.0701

     39  C    Isotropic =    47.1682   Anisotropy =   201.4580

     40  C    Isotropic =    34.3615   Anisotropy =   194.7421

     41  C    Isotropic =    42.2444   Anisotropy =   209.2501

     42  C    Isotropic =    48.8378   Anisotropy =   167.5440

     43  H    Isotropic =    23.7723   Anisotropy =     8.8558

     44  C    Isotropic =    48.0754   Anisotropy =    15.6974

     45  H    Isotropic =    24.0921   Anisotropy =     7.4925

     46  H    Isotropic =    26.3540   Anisotropy =    14.2294

     47  C    Isotropic =    49.7566   Anisotropy =    13.2713

     48  F    Isotropic =   215.8380   Anisotropy =   150.4359

     49  F    Isotropic =   247.8117   Anisotropy =   125.9634

     50  F    Isotropic =   247.2093   Anisotropy =   133.9149

     51  F    Isotropic =   245.5891   Anisotropy =   121.6293

     52  F    Isotropic =   244.5845   Anisotropy =   141.7683

     53  F    Isotropic =   212.9447   Anisotropy =   140.6272

     54  F    Isotropic =   246.8121   Anisotropy =   139.3465

     55  F    Isotropic =   221.9348   Anisotropy =   144.2652

     56  F    Isotropic =   240.9847   Anisotropy =   139.2911

     57  F    Isotropic =   215.9558   Anisotropy =   148.6827

     58  F    Isotropic =   244.4557   Anisotropy =   141.9744

     59  F    Isotropic =   251.1771   Anisotropy =   136.0060

     60  P    Isotropic =   239.6293   Anisotropy =   116.7990

     61  C    Isotropic =    18.1091   Anisotropy =   130.3284

     62  C    Isotropic =    48.4944   Anisotropy =   168.8992

     63  C    Isotropic =    47.7533   Anisotropy =   157.6299

     64  C    Isotropic =    49.5758   Anisotropy =   162.7783

     65  C    Isotropic =    39.1504   Anisotropy =   175.1432

     66  C    Isotropic =    47.9904   Anisotropy =   172.0923

     67  H    Isotropic =    25.3582   Anisotropy =    16.7675

     68  H    Isotropic =    23.8341   Anisotropy =    13.5982

     69  Cl   Isotropic =   805.4228   Anisotropy =   174.8764

     70  Cl   Isotropic =   902.2392   Anisotropy =   547.7074

     71  H    Isotropic =    27.4025   Anisotropy =     4.0925

     72  C    Isotropic =    52.5108   Anisotropy =   188.1844

     73  C    Isotropic =    47.8751   Anisotropy =   192.6970

     74  C    Isotropic =    40.6254   Anisotropy =   167.0362

     75  C    Isotropic =    34.1905   Anisotropy =   197.0879

     76  C    Isotropic =    40.1116   Anisotropy =   175.6605

     77  C    Isotropic =    40.2836   Anisotropy =   197.6749

     78  H    Isotropic =    23.7736   Anisotropy =     4.1793

     79  H    Isotropic =    23.3768   Anisotropy =     4.3113

     80  H    Isotropic =    21.9331   Anisotropy =     8.4015

     81  H    Isotropic =    23.9146   Anisotropy =     9.6213

     82  C    Isotropic =    18.2145   Anisotropy =   138.4776

     83  C    Isotropic =    43.7137   Anisotropy =   182.6131

     84  C    Isotropic =    40.3247   Anisotropy =   164.7102

     85  C    Isotropic =    51.7654   Anisotropy =   177.9003

     86  C    Isotropic =    47.7196   Anisotropy =   175.2807

     87  C    Isotropic =    47.7307   Anisotropy =   179.8962

     88  H    Isotropic =    22.7766   Anisotropy =    14.1160

     89  H    Isotropic =    24.9466   Anisotropy =     9.8588

     90  Pd   Isotropic =  -161.0260   Anisotropy =   223.4738

     91  C    Isotropic =   167.4006   Anisotropy =    29.1249

     92  H    Isotropic =    30.0447   Anisotropy =     6.5818

     93  H    Isotropic =    28.8994   Anisotropy =     9.3742

     94  H    Isotropic =    29.3209   Anisotropy =     9.0515

     95  C    Isotropic =   169.6954   Anisotropy =    28.4559

     96  H    Isotropic =    29.2950   Anisotropy =     6.6714

     97  H    Isotropic =    29.3994   Anisotropy =     7.9725

     98  H    Isotropic =    28.7322   Anisotropy =     8.9630

     99  O    Isotropic =   255.8822   Anisotropy =   111.0132

    100  C    Isotropic =   126.6393   Anisotropy =    84.1229

    101  H    Isotropic =    27.8251   Anisotropy =     7.8123

    102  H    Isotropic =    28.2197   Anisotropy =     8.6653

    103  H    Isotropic =    27.6579   Anisotropy =    10.7825

    104  C    Isotropic =   169.7385   Anisotropy =    26.8340

    105  H    Isotropic =    28.9099   Anisotropy =     5.2553

    106  H    Isotropic =    29.1972   Anisotropy =    10.2877

    107  H    Isotropic =    29.1606   Anisotropy =    10.4192

    108  C    Isotropic =   168.8521   Anisotropy =    23.7019

    109  H    Isotropic =    28.9177   Anisotropy =     4.7487

    110  H    Isotropic =    29.4279   Anisotropy =    11.3070

    111  H    Isotropic =    30.1560   Anisotropy =     6.4748

    112  O    Isotropic =   252.0885   Anisotropy =   117.9558

    113  C    Isotropic =   126.1897   Anisotropy =    87.6292

    114  H    Isotropic =    27.5983   Anisotropy =    11.6833

    115  H    Isotropic =    27.8204   Anisotropy =    10.1188

    116  H    Isotropic =    28.1741   Anisotropy =    11.0271

 Normal termination of Gaussian 16 at Fri Mar  4 04:06:17 2022.
 Gaussian 16:  ES64L-G16RevB.01 20-Dec-2017

 ----------------------------------------------------------------------
 # PBE1PBE gen pseudo=read int=(grid=ultrafine) empiricaldispersion=GD3
 BJ pop=nbo guess=read geom=check
 ----------------------------------------------------------------------

 --------------
 W005_1_2 title
 --------------
 Structure from the checkpoint file:  "W005_1_2_SPE.chk"
 Charge =  0 Multiplicity = 1

                         Standard orientation:
 ---------------------------------------------------------------------
 Center     Atomic      Atomic             Coordinates (Angstroms)
 Number     Number       Type             X           Y           Z
 ---------------------------------------------------------------------
      1          6           0       -2.085255   -5.850306    1.244479
      2          6           0       -3.065820   -6.191612    0.252706
      3          6           0       -4.306958   -5.568801    0.622760
      4          6           0       -4.094376   -4.842578    1.843934
      5          6           0       -2.718944   -5.017930    2.228544
      6          1           0       -2.885684   -6.771736   -0.652996
      7          1           0       -5.232922   -5.596341    0.047294
      8          1           0       -4.839225   -4.238463    2.363497
      9          1           0       -2.230258   -4.596867    3.108284
     10          1           0       -1.037666   -6.152395    1.241984
     11         26           0       -2.847968   -4.158204    0.361317
     12          6           0       -3.236918   -3.354495   -1.485440
     13          6           0       -3.605517   -2.436863   -0.453739
     14          6           0       -2.437246   -2.135021    0.339439
     15          6           0       -1.334993   -2.918138   -0.203806
     16          6           0       -1.847616   -3.646985   -1.337979
     17          1           0       -3.905512   -3.789960   -2.227631
     18          1           0       -1.272310   -4.323174   -1.965805
     19          6           0        0.113913   -2.884581    0.216120
     20         15           0        0.793904   -1.209513   -0.393866
     21          1           0        0.183541   -2.859652    1.317850
     22          6           0        0.925778   -4.066955   -0.332202
     23          1           0        1.929863   -4.114647    0.115385
     24          1           0        0.398100   -5.004729   -0.092608
     25          1           0        1.033277   -3.994219   -1.426517
     26          6           0        5.102356   -1.051713   -2.112414
     27          6           0        4.031835   -0.459824   -2.795767
     28          6           0        2.718398   -0.602713   -2.327552
     29          6           0        2.464703   -1.346187   -1.162353
     30          6           0        3.536750   -1.941566   -0.476440
     31          6           0        4.847227   -1.793858   -0.952199
     32          1           0        6.127099   -0.919745   -2.467696
     33          6           0        4.282338    0.319063   -4.065057
     34          1           0        1.888058   -0.128407   -2.855769
     35          1           0        3.372863   -2.477843    0.462130
     36          6           0        5.988917   -2.315276   -0.115028
     37          6           0        2.352844    0.888949    3.505786
     38          6           0        1.169839    0.142096    3.545242
     39          6           0        0.677324   -0.492377    2.393923
     40          6           0        1.348660   -0.353341    1.165750
     41          6           0        2.500896    0.456904    1.120145
     42          6           0        3.010448    1.046561    2.280669
     43          1           0        2.744778    1.357402    4.411545
     44          6           0        0.370916    0.109442    4.822403
     45          1           0       -0.242607   -1.075627    2.471266
     46          1           0        3.022700    0.630675    0.178401
     47          6           0        4.328755    1.779917    2.211301
     48          9           0        5.368693    0.926162    2.422031
     49          9           0        4.523771    2.355584    0.996394
     50          9           0        4.412536    2.756208    3.158194
     51          9           0       -0.407080   -0.999832    4.919298
     52          9           0        1.166717    0.156832    5.922632
     53          9           0       -0.466381    1.194895    4.895363
     54          9           0        5.526827    0.870376   -4.075411
     55          9           0        4.178251   -0.469826   -5.163289
     56          9           0        3.380995    1.333975   -4.211792
     57          9           0        6.298336   -1.432962    0.877740
     58          9           0        5.669988   -3.494704    0.486147
     59          9           0        7.113707   -2.511677   -0.850026
     60         15           0       -1.698403    1.046732   -0.323988
     61          6           0       -5.194009    3.830905   -1.484775
     62          6           0       -3.947959    4.416246   -1.177984
     63          6           0       -2.879171    3.569480   -0.843066
     64          6           0       -3.052680    2.175783   -0.810715
     65          6           0       -4.299686    1.616425   -1.142120
     66          6           0       -5.387317    2.430836   -1.484759
     67          1           0       -1.905199    4.008683   -0.605122
     68          1           0       -4.417731    0.528471   -1.169701
     69         17           0       -2.486472    0.132669   -3.413919
     70         17           0        0.103098   -2.034407   -3.372152
     71          1           0       -4.601145   -2.033822   -0.264196
     72          6           0       -3.278323    0.738179    3.450008
     73          6           0       -3.308871   -0.635158    3.714140
     74          6           0       -2.966451   -1.541851    2.705173
     75          6           0       -2.523598   -1.122304    1.432660
     76          6           0       -2.397981    0.279640    1.206454
     77          6           0       -2.840943    1.182016    2.198260
     78          1           0       -3.593541    1.461886    4.207803
     79          1           0       -3.633339   -1.005375    4.691752
     80          1           0       -3.068156   -2.614709    2.869630
     81          1           0       -2.857790    2.252822    1.972437
     82          6           0        1.769998    3.951085    0.711994
     83          6           0        1.626501    3.428385   -0.593186
     84          6           0        0.558278    2.549556   -0.835304
     85          6           0       -0.336031    2.177862    0.189622
     86          6           0       -0.135458    2.678186    1.486796
     87          6           0        0.911090    3.571550    1.765578
     88          1           0        0.432541    2.118569   -1.837027
     89          1           0       -0.758594    2.342238    2.318694
     90         46           0       -0.827461   -0.422298   -1.836293
     91          6           0       -3.779988    5.915015   -1.232896
     92          1           0       -2.728643    6.197531   -1.061613
     93          1           0       -4.095434    6.312326   -2.212242
     94          1           0       -4.397024    6.426416   -0.471845
     95          6           0       -6.709301    1.827135   -1.890985
     96          1           0       -6.554763    0.845515   -2.367953
     97          1           0       -7.377381    1.671711   -1.022746
     98          1           0       -7.235439    2.485357   -2.600719
     99          8           0       -6.228699    4.674292   -1.867390
    100          6           0       -7.163872    4.940491   -0.816164
    101          1           0       -7.675179    4.019413   -0.477195
    102          1           0       -6.667258    5.412087    0.054081
    103          1           0       -7.908347    5.636044   -1.233043
    104          6           0        2.630988    3.760431   -1.669002
    105          1           0        3.626867    3.918466   -1.224706
    106          1           0        2.361141    4.684431   -2.213523
    107          1           0        2.698877    2.952705   -2.415117
    108          6           0        1.147137    4.081913    3.166188
    109          1           0        2.220757    4.063747    3.411091
    110          1           0        0.807885    5.128002    3.281308
    111          1           0        0.600913    3.467664    3.900279
    112          8           0        2.839354    4.781495    1.006750
    113          6           0        2.593726    6.158368    0.693789
    114          1           0        3.502439    6.706969    0.984148
    115          1           0        2.407440    6.304167   -0.387050
    116          1           0        1.728770    6.551188    1.262228
 ---------------------------------------------------------------------

 SCF Done:  E(RPBE1PBE) =  -5208.95896456     A.U. after    1 cycles

 The electronic state is 1-A.
 Alpha  occ. eigenvalues -- -101.62260-101.61592 -77.28144 -77.27305 -24.82590
 Alpha  occ. eigenvalues --  -24.82492 -24.82112 -24.81750 -24.81697 -24.81649
 Alpha  occ. eigenvalues --  -24.81631 -24.81251 -24.81205 -24.81134 -24.81069
 Alpha  occ. eigenvalues --  -24.80661 -19.24077 -19.23278 -10.50139 -10.49419
 Alpha  occ. eigenvalues --  -10.49263 -10.48810 -10.29964 -10.29381 -10.29175
 Alpha  occ. eigenvalues --  -10.29150 -10.28811 -10.28768 -10.28695 -10.28643
 Alpha  occ. eigenvalues --  -10.28571 -10.28566 -10.28521 -10.28370 -10.28363
 Alpha  occ. eigenvalues --  -10.28288 -10.28084 -10.28032 -10.27812 -10.27650
 Alpha  occ. eigenvalues --  -10.27463 -10.26393 -10.26269 -10.26212 -10.26211
 Alpha  occ. eigenvalues --  -10.26006 -10.25971 -10.25846 -10.25673 -10.25303
 Alpha  occ. eigenvalues --  -10.25160 -10.25154 -10.25142 -10.24892 -10.24816
 Alpha  occ. eigenvalues --  -10.24783 -10.24703 -10.24674 -10.24658 -10.24634
 Alpha  occ. eigenvalues --  -10.24597 -10.24159 -10.24082 -10.24026 -10.23841
 Alpha  occ. eigenvalues --  -10.23673 -10.23575 -10.23113 -10.22772 -10.22484
 Alpha  occ. eigenvalues --   -9.44792  -9.44091  -7.17961  -7.17521  -7.17486
 Alpha  occ. eigenvalues --   -7.17316  -7.16814  -7.16742  -6.67331  -6.66477
 Alpha  occ. eigenvalues --   -4.80953  -4.80867  -4.80650  -4.80068  -4.80042
 Alpha  occ. eigenvalues --   -4.79835  -3.61059  -3.52625  -2.25660  -2.21328
 Alpha  occ. eigenvalues --   -2.21287  -2.20397  -2.20287  -2.16831  -1.35945
 Alpha  occ. eigenvalues --   -1.35167  -1.35093  -1.34599  -1.27776  -1.27189
 Alpha  occ. eigenvalues --   -1.26922  -1.26888  -1.26487  -1.26349  -1.26293
 Alpha  occ. eigenvalues --   -1.25948  -1.09532  -1.08598  -0.94328  -0.93525
 Alpha  occ. eigenvalues --   -0.93315  -0.91446  -0.90637  -0.90108  -0.88994
 Alpha  occ. eigenvalues --   -0.85826  -0.85571  -0.84995  -0.82871  -0.82581
 Alpha  occ. eigenvalues --   -0.82509  -0.82348  -0.81457  -0.81296  -0.79479
 Alpha  occ. eigenvalues --   -0.78773  -0.75801  -0.75313  -0.74993  -0.74846
 Alpha  occ. eigenvalues --   -0.74598  -0.74341  -0.74318  -0.74189  -0.73952
 Alpha  occ. eigenvalues --   -0.73846  -0.73719  -0.73431  -0.72298  -0.71792
 Alpha  occ. eigenvalues --   -0.71478  -0.70898  -0.69862  -0.68207  -0.67704
 Alpha  occ. eigenvalues --   -0.67531  -0.67204  -0.66795  -0.65161  -0.64386
 Alpha  occ. eigenvalues --   -0.63586  -0.63208  -0.62906  -0.62686  -0.62280
 Alpha  occ. eigenvalues --   -0.62232  -0.61943  -0.61813  -0.61644  -0.61520
 Alpha  occ. eigenvalues --   -0.61462  -0.60966  -0.60557  -0.58783  -0.57886
 Alpha  occ. eigenvalues --   -0.57622  -0.57066  -0.57005  -0.56806  -0.56383
 Alpha  occ. eigenvalues --   -0.56364  -0.55527  -0.55502  -0.54929  -0.54649
 Alpha  occ. eigenvalues --   -0.53906  -0.53698  -0.52967  -0.52697  -0.52122
 Alpha  occ. eigenvalues --   -0.52053  -0.51679  -0.50842  -0.50618  -0.50315
 Alpha  occ. eigenvalues --   -0.50186  -0.49917  -0.49692  -0.49633  -0.49476
 Alpha  occ. eigenvalues --   -0.49408  -0.49220  -0.49001  -0.48670  -0.48500
 Alpha  occ. eigenvalues --   -0.48183  -0.47546  -0.47271  -0.46874  -0.46732
 Alpha  occ. eigenvalues --   -0.46436  -0.46320  -0.46112  -0.46087  -0.45951
 Alpha  occ. eigenvalues --   -0.45851  -0.45742  -0.45526  -0.45462  -0.45326
 Alpha  occ. eigenvalues --   -0.45268  -0.45057  -0.44874  -0.44699  -0.44502
 Alpha  occ. eigenvalues --   -0.44384  -0.44313  -0.44251  -0.44106  -0.43962
 Alpha  occ. eigenvalues --   -0.43935  -0.43849  -0.43710  -0.43542  -0.43455
 Alpha  occ. eigenvalues --   -0.43269  -0.43093  -0.42977  -0.42960  -0.42871
 Alpha  occ. eigenvalues --   -0.42635  -0.42406  -0.42329  -0.42052  -0.41778
 Alpha  occ. eigenvalues --   -0.41590  -0.41267  -0.40536  -0.40258  -0.40182
 Alpha  occ. eigenvalues --   -0.40135  -0.40003  -0.39929  -0.39599  -0.39567
 Alpha  occ. eigenvalues --   -0.39293  -0.38997  -0.38667  -0.38607  -0.38312
 Alpha  occ. eigenvalues --   -0.38063  -0.37870  -0.37690  -0.37373  -0.37142
 Alpha  occ. eigenvalues --   -0.36934  -0.36653  -0.36101  -0.35636  -0.35408
 Alpha  occ. eigenvalues --   -0.34024  -0.32766  -0.32243  -0.32156  -0.31665
 Alpha  occ. eigenvalues --   -0.31291  -0.30728  -0.30647  -0.30343  -0.29700
 Alpha  occ. eigenvalues --   -0.29545  -0.29161  -0.28885  -0.28700  -0.28493
 Alpha  occ. eigenvalues --   -0.27637  -0.27442  -0.27049  -0.26885  -0.26269
 Alpha  occ. eigenvalues --   -0.26047  -0.25931  -0.25319  -0.25015  -0.24787
 Alpha  occ. eigenvalues --   -0.24254  -0.23574  -0.23068  -0.23004
 Alpha virt. eigenvalues --   -0.08947  -0.08070  -0.06986  -0.06149  -0.05917
 Alpha virt. eigenvalues --   -0.05476  -0.04254  -0.03886  -0.03164  -0.02188
 Alpha virt. eigenvalues --   -0.01240  -0.01035  -0.00943  -0.00750   0.00200

 Mulliken charges:
               1
     1  C   -0.068809
     2  C   -0.031861
     3  C    0.014014
     4  C   -0.105150
     5  C   -0.154491
     6  H    0.126450
     7  H    0.124275
     8  H    0.130713
     9  H    0.133255
    10  H    0.120643
    11  Fe  -0.452939
    12  C   -0.071052
    13  C   -0.036336
    14  C    0.414251
    15  C    0.167857
    16  C   -0.124366
    17  H    0.117100
    18  H    0.139649
    19  C   -0.163591
    20  P    0.240487
    21  H    0.139496
    22  C   -0.424663
    23  H    0.126034
    24  H    0.138886
    25  H    0.179394
    26  C   -0.274964
    27  C    0.108677
    28  C   -0.183491
    29  C   -0.017686
    30  C   -0.305495
    31  C    0.124497
    32  H    0.169150
    33  C    0.437782
    34  H    0.249981
    35  H    0.168426
    36  C    0.433618
    37  C   -0.279478
    38  C    0.009323
    39  C   -0.230550
    40  C    0.092592
    41  C   -0.173680
    42  C    0.045111
    43  H    0.163250
    44  C    0.465024
    45  H    0.224834
    46  H    0.196837
    47  C    0.450417
    48  F   -0.150672
    49  F   -0.161205
    50  F   -0.168622
    51  F   -0.164082
    52  F   -0.157751
    53  F   -0.169913
    54  F   -0.165118
    55  F   -0.146209
    56  F   -0.164744
    57  F   -0.149908
    58  F   -0.164810
    59  F   -0.159553
    60  P    0.269076
    61  C    0.218638
    62  C    0.075138
    63  C   -0.265629
    64  C    0.097667
    65  C   -0.332134
    66  C    0.124234
    67  H    0.144954
    68  H    0.146974
    69  Cl  -0.406564
    70  Cl  -0.402169
    71  H    0.125755
    72  C   -0.145331
    73  C   -0.128278
    74  C   -0.121158
    75  C   -0.274722
    76  C   -0.032417
    77  C   -0.177012
    78  H    0.122845
    79  H    0.123417
    80  H    0.093307
    81  H    0.190408
    82  C    0.310312
    83  C    0.013904
    84  C   -0.203189
    85  C   -0.106212
    86  C   -0.144956
    87  C   -0.039828
    88  H    0.187890
    89  H    0.153529
    90  Pd   0.036672
    91  C   -0.409968
    92  H    0.127207
    93  H    0.150680
    94  H    0.121771
    95  C   -0.484683
    96  H    0.155272
    97  H    0.136691
    98  H    0.163718
    99  O   -0.284099
   100  C   -0.217595
   101  H    0.122858
   102  H    0.117388
   103  H    0.140756
   104  C   -0.454811
   105  H    0.165298
   106  H    0.143648
   107  H    0.150405
   108  C   -0.433353
   109  H    0.155301
   110  H    0.137762
   111  H    0.137202
   112  O   -0.289848
   113  C   -0.229496
   114  H    0.144634
   115  H    0.126074
   116  H    0.121236
 Sum of Mulliken charges =  -0.00000

 Dipole moment (field-independent basis, Debye):
    X=             -3.7214    Y=              3.2830    Z=              8.8903  Tot=             10.1816
 Quadrupole moment (field-independent basis, Debye-Ang):
   XX=           -451.4888   YY=           -425.5321   ZZ=           -501.5071
   XY=             -1.0058   XZ=            -18.2423   YZ=              3.8921

 Summary of Natural Population Analysis:

                                       Natural Population
                Natural  -----------------------------------------------
    Atom  No    Charge         Core      Valence    Rydberg      Total
 -----------------------------------------------------------------------
      C    1   -0.20651      1.99877     4.18229    0.02545     6.20651
      C    2   -0.20325      1.99877     4.17922    0.02526     6.20325
      C    3   -0.20416      1.99877     4.17968    0.02571     6.20416
      C    4   -0.21689      1.99876     4.19294    0.02519     6.21689
      C    5   -0.22386      1.99876     4.20003    0.02508     6.22386
      H    6    0.24956      0.00000     0.74911    0.00134     0.75044
      H    7    0.24885      0.00000     0.74982    0.00133     0.75115
      H    8    0.24720      0.00000     0.75147    0.00134     0.75280
      H    9    0.24302      0.00000     0.75568    0.00130     0.75698
      H   10    0.24313      0.00000     0.75541    0.00146     0.75687
     Fe   11   -0.30255     17.99228     8.27198    0.03829    26.30255
      C   12   -0.17747      1.99879     4.15588    0.02280     6.17747
      C   13   -0.18590      1.99871     4.16426    0.02293     6.18590
      C   14   -0.05871      1.99861     4.02571    0.03440     6.05871
      C   15   -0.02638      1.99861     3.98942    0.03835     6.02638
      C   16   -0.17461      1.99870     4.15102    0.02488     6.17461
      H   17    0.25144      0.00000     0.74721    0.00135     0.74856
      H   18    0.26379      0.00000     0.73445    0.00176     0.73621
      C   19   -0.48823      1.99923     4.45944    0.02956     6.48823
      P   20    1.17690      9.99553     3.77693    0.05064    13.82310
      H   21    0.24384      0.00000     0.75399    0.00217     0.75616
      C   22   -0.62758      1.99944     4.61466    0.01348     6.62758
      H   23    0.21642      0.00000     0.78265    0.00093     0.78358
      H   24    0.22956      0.00000     0.76914    0.00130     0.77044
      H   25    0.24868      0.00000     0.75017    0.00115     0.75132
      C   26   -0.13728      1.99907     4.12217    0.01604     6.13728
      C   27   -0.15432      1.99897     4.13076    0.02458     6.15432
      C   28   -0.12719      1.99902     4.10930    0.01886     6.12719
      C   29   -0.34322      1.99900     4.30944    0.03479     6.34322
      C   30   -0.15923      1.99901     4.14017    0.02004     6.15923
      C   31   -0.15516      1.99897     4.13100    0.02519     6.15516
      H   32    0.25660      0.00000     0.74208    0.00132     0.74340
      C   33    0.95177      1.99913     3.00161    0.04749     5.04823
      H   34    0.27407      0.00000     0.72435    0.00157     0.72593
      H   35    0.23878      0.00000     0.75900    0.00221     0.76122
      C   36    0.95078      1.99912     3.00274    0.04736     5.04922
      C   37   -0.14456      1.99906     4.12901    0.01649     6.14456
      C   38   -0.15581      1.99895     4.13204    0.02482     6.15581
      C   39   -0.17169      1.99901     4.15368    0.01900     6.17169
      C   40   -0.34258      1.99901     4.30853    0.03504     6.34258
      C   41   -0.14633      1.99902     4.12671    0.02059     6.14633
      C   42   -0.14546      1.99893     4.12043    0.02610     6.14546
      H   43    0.25603      0.00000     0.74255    0.00142     0.74397
      C   44    0.95297      1.99909     3.00121    0.04673     5.04703
      H   45    0.25466      0.00000     0.74337    0.00196     0.74534
      H   46    0.25300      0.00000     0.74410    0.00291     0.74700
      C   47    0.95221      1.99910     3.00177    0.04692     5.04779
      F   48   -0.30673      1.99992     7.29889    0.00791     9.30673
      F   49   -0.30634      1.99992     7.29794    0.00848     9.30634
      F   50   -0.31300      1.99992     7.30493    0.00815     9.31300
      F   51   -0.30870      1.99992     7.30072    0.00805     9.30870
      F   52   -0.30882      1.99992     7.30091    0.00799     9.30882
      F   53   -0.32082      1.99993     7.31288    0.00801     9.32082
      F   54   -0.31262      1.99993     7.30423    0.00846     9.31262
      F   55   -0.30075      1.99992     7.29229    0.00854     9.30075
      F   56   -0.31508      1.99992     7.30628    0.00887     9.31508
      F   57   -0.30903      1.99993     7.30073    0.00837     9.30903
      F   58   -0.31300      1.99993     7.30484    0.00823     9.31300
      F   59   -0.30804      1.99992     7.29962    0.00850     9.30804
      P   60    1.21376      9.99524     3.73708    0.05392    13.78624
      C   61    0.28991      1.99864     3.69124    0.02021     5.71009
      C   62   -0.05281      1.99904     4.03518    0.01860     6.05281
      C   63   -0.20000      1.99902     4.18288    0.01810     6.20000
      C   64   -0.35195      1.99900     4.31945    0.03349     6.35195
      C   65   -0.16315      1.99902     4.14665    0.01748     6.16315
      C   66   -0.05105      1.99903     4.03350    0.01851     6.05105
      H   67    0.22581      0.00000     0.77166    0.00254     0.77419
      H   68    0.23308      0.00000     0.76501    0.00190     0.76692
     Cl   69   -0.37950      9.99962     7.37146    0.00842    17.37950
     Cl   70   -0.42726      9.99962     7.41940    0.00824    17.42726
      H   71    0.24730      0.00000     0.75101    0.00169     0.75270
      C   72   -0.20630      1.99918     4.18982    0.01730     6.20630
      C   73   -0.18359      1.99920     4.16694    0.01746     6.18359
      C   74   -0.20859      1.99909     4.19173    0.01777     6.20859
      C   75   -0.02870      1.99893     4.00474    0.02502     6.02870
      C   76   -0.33317      1.99892     4.30063    0.03362     6.33317
      C   77   -0.20160      1.99911     4.18221    0.02028     6.20160
      H   78    0.22744      0.00000     0.77140    0.00116     0.77256
      H   79    0.22598      0.00000     0.77281    0.00121     0.77402
      H   80    0.23306      0.00000     0.76470    0.00223     0.76694
      H   81    0.23467      0.00000     0.76335    0.00197     0.76533
      C   82    0.28905      1.99860     3.69089    0.02145     5.71095
      C   83   -0.04895      1.99901     4.03162    0.01831     6.04895
      C   84   -0.20150      1.99902     4.18465    0.01783     6.20150
      C   85   -0.35560      1.99902     4.32300    0.03358     6.35560
      C   86   -0.21265      1.99900     4.19365    0.02000     6.21265
      C   87   -0.04684      1.99901     4.02794    0.01989     6.04684
      H   88    0.24192      0.00000     0.75610    0.00198     0.75808
      H   89    0.23254      0.00000     0.76508    0.00238     0.76746
     Pd   90   -0.19762     35.98797    10.17903    0.03062    46.19762
      C   91   -0.63259      1.99943     4.62124    0.01192     6.63259
      H   92    0.21762      0.00000     0.78154    0.00085     0.78238
      H   93    0.23698      0.00000     0.76180    0.00123     0.76302
      H   94    0.21998      0.00000     0.77872    0.00129     0.78002
      C   95   -0.64478      1.99943     4.63331    0.01204     6.64478
      H   96    0.23280      0.00000     0.76622    0.00099     0.76720
      H   97    0.21886      0.00000     0.77977    0.00137     0.78114
      H   98    0.23707      0.00000     0.76175    0.00118     0.76293
      O   99   -0.49486      1.99977     6.46851    0.02658     8.49486
      C  100   -0.26521      1.99930     4.25316    0.01275     6.26521
      H  101    0.17403      0.00000     0.82378    0.00220     0.82597
      H  102    0.17122      0.00000     0.82662    0.00215     0.82878
      H  103    0.19742      0.00000     0.80119    0.00139     0.80258
      C  104   -0.65264      1.99942     4.64022    0.01300     6.65264
      H  105    0.24083      0.00000     0.75797    0.00121     0.75917
      H  106    0.22751      0.00000     0.77113    0.00136     0.77249
      H  107    0.23670      0.00000     0.76240    0.00090     0.76330
      C  108   -0.65058      1.99942     4.63777    0.01338     6.65058
      H  109    0.24318      0.00000     0.75564    0.00118     0.75682
      H  110    0.22737      0.00000     0.77133    0.00130     0.77263
      H  111    0.22638      0.00000     0.77270    0.00092     0.77362
      O  112   -0.49753      1.99977     6.47125    0.02652     8.49753
      C  113   -0.26414      1.99930     4.25246    0.01238     6.26414
      H  114    0.20067      0.00000     0.79800    0.00133     0.79933
      H  115    0.17583      0.00000     0.82214    0.00203     0.82417
      H  116    0.17277      0.00000     0.82525    0.00198     0.82723
 =======================================================================
   * Total *   -0.00000    225.91748   388.42351    1.65901   616.00000

 Normal termination of Gaussian 16 at Fri Mar  4 04:12:47 2022.
