 Gaussian 16, Revision B.01,

 ----------------------------------------------------------------------
 # PBE1PBE gen pseudo=read int=(grid=ultrafine) empiricaldispersion=GD3
 BJ nmr=giao
 ----------------------------------------------------------------------

 --------------
 W005_1_4 title
 --------------
 Symbolic Z-matrix:
 Charge =  0 Multiplicity = 1

 SCF Done:  E(RPBE1PBE) =  -4160.76867905     A.U. after   22 cycles

      1  C    Isotropic =   111.2819   Anisotropy =    90.2353

      2  C    Isotropic =   112.7406   Anisotropy =    88.2902

      3  C    Isotropic =   111.6976   Anisotropy =    89.2065

      4  C    Isotropic =   109.8979   Anisotropy =    93.3095

      5  C    Isotropic =   112.0792   Anisotropy =    90.6672

      6  H    Isotropic =    27.4523   Anisotropy =     6.7290

      7  H    Isotropic =    27.4348   Anisotropy =     6.4599

      8  H    Isotropic =    27.2805   Anisotropy =     4.4729

      9  H    Isotropic =    27.0015   Anisotropy =     3.8859

     10  H    Isotropic =    27.2603   Anisotropy =     4.4224

     11  Fe   Isotropic = -6289.9540   Anisotropy =  8489.8152

     12  C    Isotropic =   114.2782   Anisotropy =    86.6851

     13  C    Isotropic =   103.9872   Anisotropy =    81.5933

     14  C    Isotropic =    88.7431   Anisotropy =    96.1451

     15  C    Isotropic =    85.6150   Anisotropy =    95.0638

     16  C    Isotropic =   117.8852   Anisotropy =    87.5847

     17  H    Isotropic =    27.2687   Anisotropy =     7.2613

     18  H    Isotropic =    27.6450   Anisotropy =     3.4128

     19  C    Isotropic =   150.0418   Anisotropy =    23.5606

     20  P    Isotropic =   265.5228   Anisotropy =    88.0276

     21  H    Isotropic =    27.7044   Anisotropy =     4.1867

     22  C    Isotropic =   167.3244   Anisotropy =     9.8105

     23  H    Isotropic =    29.7274   Anisotropy =    10.5517

     24  H    Isotropic =    29.0985   Anisotropy =     9.6055

     25  H    Isotropic =    30.4042   Anisotropy =     5.7885

     26  C    Isotropic =    55.0431   Anisotropy =   191.8150

     27  C    Isotropic =    46.8761   Anisotropy =   161.8751

     28  C    Isotropic =    41.1551   Anisotropy =   189.5433

     29  C    Isotropic =    31.1011   Anisotropy =   215.5423

     30  C    Isotropic =    35.3886   Anisotropy =   194.5096

     31  C    Isotropic =    45.8803   Anisotropy =   164.2273

     32  H    Isotropic =    23.2583   Anisotropy =     9.6776

     33  C    Isotropic =    48.8579   Anisotropy =    13.9975

     34  H    Isotropic =    23.0083   Anisotropy =    12.3602

     35  H    Isotropic =    23.6534   Anisotropy =    15.2400

     36  C    Isotropic =    48.7916   Anisotropy =    14.2014

     37  C    Isotropic =    58.6924   Anisotropy =   187.2889

     38  C    Isotropic =    49.4479   Anisotropy =   160.5746

     39  C    Isotropic =    51.1619   Anisotropy =   199.4594

     40  C    Isotropic =    26.3327   Anisotropy =   212.3881

     41  C    Isotropic =    43.1792   Anisotropy =   203.3514

     42  C    Isotropic =    49.5686   Anisotropy =   164.3414

     43  H    Isotropic =    23.8138   Anisotropy =     8.5634

     44  C    Isotropic =    47.8882   Anisotropy =    15.0536

     45  H    Isotropic =    24.5010   Anisotropy =     7.2551

     46  H    Isotropic =    25.4359   Anisotropy =    14.3459

     47  C    Isotropic =    48.7473   Anisotropy =    11.5195

     48  F    Isotropic =   219.8862   Anisotropy =   146.3486

     49  F    Isotropic =   242.2135   Anisotropy =   129.4302

     50  F    Isotropic =   246.0017   Anisotropy =   135.5866

     51  F    Isotropic =   212.0492   Anisotropy =   139.8235

     52  F    Isotropic =   249.2085   Anisotropy =   118.7320

     53  F    Isotropic =   242.1100   Anisotropy =   143.7339

     54  F    Isotropic =   248.3342   Anisotropy =   139.8367

     55  F    Isotropic =   223.2563   Anisotropy =   143.6308

     56  F    Isotropic =   243.0368   Anisotropy =   139.0305

     57  F    Isotropic =   249.2770   Anisotropy =   136.7432

     58  F    Isotropic =   219.0952   Anisotropy =   147.6595

     59  F    Isotropic =   244.1562   Anisotropy =   141.0002

     60  P    Isotropic =   314.4188   Anisotropy =    50.6211

     61  C    Isotropic =    20.3249   Anisotropy =   126.8146

     62  C    Isotropic =    45.7363   Anisotropy =   173.3663

     63  C    Isotropic =    46.1319   Anisotropy =   155.6328

     64  C    Isotropic =    39.3709   Anisotropy =   192.1552

     65  C    Isotropic =    46.8323   Anisotropy =   153.1839

     66  C    Isotropic =    48.8754   Anisotropy =   170.9231

     67  H    Isotropic =    24.8962   Anisotropy =    15.3656

     68  H    Isotropic =    23.7350   Anisotropy =    10.6144

     69  H    Isotropic =    27.4083   Anisotropy =     4.0940

     70  C    Isotropic =    50.5338   Anisotropy =   190.8525

     71  C    Isotropic =    50.7977   Anisotropy =   188.2800

     72  C    Isotropic =    43.7012   Anisotropy =   165.9269

     73  C    Isotropic =    38.1799   Anisotropy =   188.3106

     74  C    Isotropic =    35.3039   Anisotropy =   203.4970

     75  C    Isotropic =    41.0234   Anisotropy =   203.4024

     76  H    Isotropic =    23.8160   Anisotropy =     3.6937

     77  H    Isotropic =    23.5478   Anisotropy =     4.4335

     78  H    Isotropic =    22.4642   Anisotropy =     8.3130

     79  H    Isotropic =    23.4009   Anisotropy =     7.8589

     80  C    Isotropic =    20.6915   Anisotropy =   129.7936

     81  C    Isotropic =    46.4710   Anisotropy =   177.0710

     82  C    Isotropic =    46.3151   Anisotropy =   161.4301

     83  C    Isotropic =    48.4658   Anisotropy =   186.0137

     84  C    Isotropic =    47.5764   Anisotropy =   167.6802

     85  C    Isotropic =    46.7825   Anisotropy =   178.0455

     86  H    Isotropic =    24.1768   Anisotropy =    11.6080

     87  H    Isotropic =    25.4350   Anisotropy =     7.9992

     88  C    Isotropic =   167.6936   Anisotropy =    28.5148

     89  H    Isotropic =    29.9641   Anisotropy =     6.6494

     90  H    Isotropic =    29.0278   Anisotropy =     9.1249

     91  H    Isotropic =    29.3725   Anisotropy =     8.3965

     92  C    Isotropic =   169.4679   Anisotropy =    28.5712

     93  H    Isotropic =    29.3981   Anisotropy =     6.9280

     94  H    Isotropic =    29.2313   Anisotropy =     6.8298

     95  H    Isotropic =    28.6864   Anisotropy =     8.5288

     96  O    Isotropic =   259.2881   Anisotropy =   108.3332

     97  C    Isotropic =   126.3673   Anisotropy =    83.4049

     98  H    Isotropic =    27.9024   Anisotropy =     7.1221

     99  H    Isotropic =    28.2503   Anisotropy =     7.9705

    100  H    Isotropic =    27.7293   Anisotropy =    10.3468

    101  C    Isotropic =   168.8125   Anisotropy =    29.9360

    102  H    Isotropic =    29.2405   Anisotropy =     7.7531

    103  H    Isotropic =    28.7999   Anisotropy =     8.2263

    104  H    Isotropic =    29.6037   Anisotropy =     7.4491

    105  C    Isotropic =   166.8942   Anisotropy =    23.0376

    106  H    Isotropic =    29.0664   Anisotropy =     5.0515

    107  H    Isotropic =    29.0111   Anisotropy =    10.3743

    108  H    Isotropic =    29.8966   Anisotropy =     7.0155

    109  O    Isotropic =   258.6620   Anisotropy =   120.7199

    110  C    Isotropic =   125.9838   Anisotropy =    79.8938

    111  H    Isotropic =    27.7244   Anisotropy =     9.8707

    112  H    Isotropic =    27.7420   Anisotropy =     5.9819

    113  H    Isotropic =    27.9109   Anisotropy =     6.0305

 Normal termination of Gaussian 16 at Fri Mar  4 05:16:03 2022.
 Gaussian 16:  ES64L-G16RevB.01 20-Dec-2017

 ----------------------------------------------------------------------
 # PBE1PBE gen pseudo=read int=(grid=ultrafine) empiricaldispersion=GD3
 BJ pop=nbo guess=read geom=check
 ----------------------------------------------------------------------

 --------------
 W005_1_4 title
 --------------
 Structure from the checkpoint file:  "W005_1_4_SPE_NoPd.chk"
 Charge =  0 Multiplicity = 1

                         Standard orientation:
 ---------------------------------------------------------------------
 Center     Atomic      Atomic             Coordinates (Angstroms)
 Number     Number       Type             X           Y           Z
 ---------------------------------------------------------------------
      1          6           0       -2.066659   -6.083200    0.667259
      2          6           0       -3.228837   -6.211420   -0.166816
      3          6           0       -4.292333   -5.454836    0.433364
      4          6           0       -3.790237   -4.861790    1.640152
      5          6           0       -2.411567   -5.246487    1.784489
      6          1           0       -3.276731   -6.739481   -1.119786
      7          1           0       -5.290642   -5.312261    0.018226
      8          1           0       -4.353894   -4.206227    2.304712
      9          1           0       -1.737904   -4.951360    2.590538
     10          1           0       -1.088253   -6.522378    0.470351
     11         26           0       -2.691388   -4.243851    0.012777
     12          6           0       -2.969292   -3.443469   -1.848198
     13          6           0       -3.406797   -2.527217   -0.837214
     14          6           0       -2.284458   -2.225105    0.018516
     15          6           0       -1.152378   -2.994729   -0.460038
     16          6           0       -1.586276   -3.726126   -1.622326
     17          1           0       -3.591445   -3.890266   -2.623797
     18          1           0       -0.970366   -4.396858   -2.217089
     19          6           0        0.260928   -2.891785    0.048869
     20         15           0        0.901476   -1.225118   -0.626551
     21          1           0        0.254468   -2.804595    1.150363
     22          6           0        1.130100   -4.081232   -0.384892
     23          1           0        2.109701   -4.087329    0.114486
     24          1           0        0.602607   -5.012975   -0.121341
     25          1           0        1.296257   -4.068792   -1.474404
     26          6           0        5.350628   -1.531232   -1.995170
     27          6           0        4.393251   -0.958437   -2.840335
     28          6           0        3.041832   -0.906569   -2.464902
     29          6           0        2.641143   -1.428592   -1.224561
     30          6           0        3.608464   -1.968331   -0.357513
     31          6           0        4.951412   -2.034262   -0.749602
     32          1           0        6.399753   -1.573603   -2.297048
     33          6           0        4.797360   -0.433252   -4.198871
     34          1           0        2.300570   -0.467658   -3.136220
     35          1           0        3.330314   -2.323638    0.638710
     36          6           0        5.977340   -2.570267    0.218078
     37          6           0        2.240186    1.527896    2.917842
     38          6           0        1.234926    0.580381    3.146442
     39          6           0        0.788326   -0.267464    2.118531
     40          6           0        1.338598   -0.155821    0.830129
     41          6           0        2.304871    0.842234    0.591456
     42          6           0        2.764052    1.659916    1.627398
     43          1           0        2.594043    2.166916    3.730216
     44          6           0        0.571478    0.560320    4.499915
     45          1           0        0.005415   -0.996989    2.338653
     46          1           0        2.722106    0.976895   -0.409327
     47          6           0        3.889671    2.623698    1.346130
     48          9           0        5.100320    2.018569    1.461445
     49          9           0        3.809570    3.129749    0.085602
     50          9           0        3.888456    3.679476    2.215127
     51          9           0       -0.369781    1.554052    4.585439
     52          9           0       -0.057569   -0.615085    4.755172
     53          9           0        1.462480    0.781120    5.502146
     54          9           0        6.117640   -0.097241   -4.230752
     55          9           0        4.592732   -1.362110   -5.167781
     56          9           0        4.080914    0.671352   -4.534169
     57          9           0        7.059627   -3.081257   -0.424025
     58          9           0        6.426374   -1.592891    1.054319
     59          9           0        5.453615   -3.554601    1.002026
     60         15           0       -1.781688    0.909188   -0.740922
     61          6           0       -5.971784    2.413387   -1.973276
     62          6           0       -5.100767    3.305829   -1.313452
     63          6           0       -3.810307    2.858112   -0.989058
     64          6           0       -3.400677    1.553869   -1.315575
     65          6           0       -4.278342    0.693494   -1.994811
     66          6           0       -5.574408    1.106977   -2.335131
     67          1           0       -3.118371    3.545949   -0.491508
     68          1           0       -3.929478   -0.293862   -2.310531
     69          1           0       -4.416201   -2.138969   -0.698721
     70          6           0       -2.980894    0.593242    3.194530
     71          6           0       -2.906869   -0.776844    3.470708
     72          6           0       -2.624139   -1.673218    2.434431
     73          6           0       -2.348137   -1.233322    1.123383
     74          6           0       -2.283661    0.167627    0.883509
     75          6           0       -2.679111    1.053405    1.908654
     76          1           0       -3.258364    1.306420    3.976273
     77          1           0       -3.104788   -1.151130    4.479910
     78          1           0       -2.641851   -2.749822    2.610529
     79          1           0       -2.755565    2.122747    1.695300
     80          6           0        0.567545    4.851011   -0.104383
     81          6           0        0.214494    4.404721   -1.400142
     82          6           0       -0.470369    3.185651   -1.519198
     83          6           0       -0.800981    2.419751   -0.381295
     84          6           0       -0.406183    2.871320    0.889610
     85          6           0        0.266196    4.094059    1.047421
     86          1           0       -0.771693    2.832202   -2.514083
     87          1           0       -0.615910    2.283114    1.785624
     88          6           0       -5.551163    4.710685   -0.995579
     89          1           0       -4.719179    5.305868   -0.585764
     90          1           0       -5.935307    5.216813   -1.897050
     91          1           0       -6.371745    4.720514   -0.255196
     92          6           0       -6.494507    0.199601   -3.114691
     93          1           0       -5.912087   -0.476546   -3.761672
     94          1           0       -7.114371   -0.431122   -2.449249
     95          1           0       -7.180836    0.788187   -3.744384
     96          8           0       -7.225845    2.884380   -2.340138
     97          6           0       -8.268795    2.474413   -1.448767
     98          1           0       -8.384704    1.373937   -1.430059
     99          1           0       -8.078907    2.829234   -0.417136
    100          1           0       -9.196556    2.930437   -1.827160
    101          6           0        0.520981    5.238034   -2.620172
    102          1           0        1.531742    5.024718   -3.015080
    103          1           0        0.480498    6.312884   -2.379792
    104          1           0       -0.194291    5.023298   -3.430090
    105          6           0        0.617517    4.612238    2.421182
    106          1           0        1.705906    4.737519    2.545054
    107          1           0        0.162223    5.601694    2.597549
    108          1           0        0.264342    3.917070    3.200629
    109          8           0        1.137034    6.101877    0.068637
    110          6           0        2.552660    6.154181   -0.165814
    111          1           0        2.837075    7.212707   -0.066867
    112          1           0        3.104910    5.551002    0.575299
    113          1           0        2.813676    5.798307   -1.179425
 ---------------------------------------------------------------------

 SCF Done:  E(RPBE1PBE) =  -4160.76867905     A.U. after    1 cycles

 The electronic state is 1-A.
 Alpha  occ. eigenvalues --  -77.22352 -77.19798 -24.81580 -24.81511 -24.81461
 Alpha  occ. eigenvalues --  -24.81423 -24.81371 -24.81333 -24.81324 -24.81270
 Alpha  occ. eigenvalues --  -24.81159 -24.81035 -24.80976 -24.80746 -19.22560
 Alpha  occ. eigenvalues --  -19.22280 -10.49109 -10.49084 -10.48875 -10.48741
 Alpha  occ. eigenvalues --  -10.28621 -10.28538 -10.28089 -10.27845 -10.27766
 Alpha  occ. eigenvalues --  -10.27719 -10.27696 -10.27684 -10.27671 -10.27532
 Alpha  occ. eigenvalues --  -10.27427 -10.27399 -10.26991 -10.26890 -10.26779
 Alpha  occ. eigenvalues --  -10.26750 -10.26715 -10.25720 -10.25690 -10.25403
 Alpha  occ. eigenvalues --  -10.24884 -10.24737 -10.24695 -10.24659 -10.24620
 Alpha  occ. eigenvalues --  -10.24607 -10.24583 -10.24445 -10.24433 -10.24042
 Alpha  occ. eigenvalues --  -10.24006 -10.23908 -10.23827 -10.23827 -10.23772
 Alpha  occ. eigenvalues --  -10.23770 -10.23751 -10.23712 -10.23671 -10.23300
 Alpha  occ. eigenvalues --  -10.22969 -10.22652 -10.22606 -10.22437 -10.22385
 Alpha  occ. eigenvalues --  -10.22112 -10.21908 -10.21756  -6.61908  -6.59398
 Alpha  occ. eigenvalues --   -4.75520  -4.75459  -4.75024  -4.73002  -4.72972
 Alpha  occ. eigenvalues --   -4.72528  -3.60970  -2.25587  -2.21230  -2.21198
 Alpha  occ. eigenvalues --   -1.35034  -1.34988  -1.34831  -1.34650  -1.26761
 Alpha  occ. eigenvalues --   -1.26639  -1.26520  -1.26496  -1.26476  -1.26263
 Alpha  occ. eigenvalues --   -1.26224  -1.25878  -1.07865  -1.07537  -0.93400
 Alpha  occ. eigenvalues --   -0.93048  -0.92489  -0.91052  -0.88886  -0.88077
 Alpha  occ. eigenvalues --   -0.87720  -0.84920  -0.84429  -0.84220  -0.82039
 Alpha  occ. eigenvalues --   -0.81448  -0.80692  -0.80655  -0.80088  -0.79749
 Alpha  occ. eigenvalues --   -0.77436  -0.77207  -0.75093  -0.74646  -0.74216
 Alpha  occ. eigenvalues --   -0.74207  -0.74180  -0.73712  -0.73354  -0.73212
 Alpha  occ. eigenvalues --   -0.73118  -0.72996  -0.70278  -0.70061  -0.69879
 Alpha  occ. eigenvalues --   -0.69656  -0.68515  -0.67250  -0.67097  -0.66677
 Alpha  occ. eigenvalues --   -0.66097  -0.65346  -0.64016  -0.63180  -0.62277
 Alpha  occ. eigenvalues --   -0.62207  -0.62044  -0.62023  -0.61898  -0.61775
 Alpha  occ. eigenvalues --   -0.61764  -0.61525  -0.61497  -0.60318  -0.59941
 Alpha  occ. eigenvalues --   -0.59758  -0.59487  -0.57684  -0.57259  -0.56760
 Alpha  occ. eigenvalues --   -0.56645  -0.56388  -0.56198  -0.55730  -0.55279
 Alpha  occ. eigenvalues --   -0.54543  -0.54429  -0.54033  -0.53052  -0.53004
 Alpha  occ. eigenvalues --   -0.52845  -0.51828  -0.51246  -0.51130  -0.50769
 Alpha  occ. eigenvalues --   -0.50251  -0.49905  -0.49816  -0.49681  -0.49592
 Alpha  occ. eigenvalues --   -0.49491  -0.49450  -0.49265  -0.49104  -0.48415
 Alpha  occ. eigenvalues --   -0.47858  -0.47762  -0.47603  -0.46802  -0.46678
 Alpha  occ. eigenvalues --   -0.46579  -0.46362  -0.46343  -0.46164  -0.45961
 Alpha  occ. eigenvalues --   -0.45915  -0.45823  -0.45578  -0.45267  -0.45093
 Alpha  occ. eigenvalues --   -0.44811  -0.44468  -0.44350  -0.44238  -0.44188
 Alpha  occ. eigenvalues --   -0.44027  -0.43964  -0.43905  -0.43860  -0.43819
 Alpha  occ. eigenvalues --   -0.43763  -0.43600  -0.43404  -0.43358  -0.43155
 Alpha  occ. eigenvalues --   -0.42995  -0.42892  -0.42692  -0.42668  -0.42386
 Alpha  occ. eigenvalues --   -0.42219  -0.42172  -0.41935  -0.41815  -0.41606
 Alpha  occ. eigenvalues --   -0.41488  -0.41345  -0.40992  -0.40942  -0.40769
 Alpha  occ. eigenvalues --   -0.40129  -0.40042  -0.39964  -0.39546  -0.39368
 Alpha  occ. eigenvalues --   -0.39083  -0.38819  -0.38564  -0.38445  -0.37916
 Alpha  occ. eigenvalues --   -0.37624  -0.37153  -0.36918  -0.36544  -0.36228
 Alpha  occ. eigenvalues --   -0.36120  -0.35904  -0.35621  -0.35411  -0.34791
 Alpha  occ. eigenvalues --   -0.33380  -0.33075  -0.32071  -0.31130  -0.30748
 Alpha  occ. eigenvalues --   -0.29731  -0.29149  -0.28893  -0.28832  -0.28781
 Alpha  occ. eigenvalues --   -0.27734  -0.27516  -0.26931  -0.26591  -0.26516
 Alpha  occ. eigenvalues --   -0.25876  -0.25559  -0.25022  -0.24635  -0.24121
 Alpha  occ. eigenvalues --   -0.22958  -0.22884  -0.20004
 Alpha virt. eigenvalues --   -0.06919  -0.06547  -0.05858  -0.04853  -0.03714
 Alpha virt. eigenvalues --   -0.02449  -0.01811  -0.01520  -0.01166  -0.00850
 Alpha virt. eigenvalues --   -0.00552  -0.00475   0.00121   0.01163   0.01678

 Mulliken charges:
               1
     1  C   -0.057443
     2  C   -0.063090
     3  C    0.010395
     4  C   -0.130178
     5  C   -0.161984
     6  H    0.121478
     7  H    0.121478
     8  H    0.135112
     9  H    0.131460
    10  H    0.124443
    11  Fe  -0.451976
    12  C   -0.091642
    13  C   -0.160332
    14  C    0.438031
    15  C    0.239375
    16  C   -0.136976
    17  H    0.114432
    18  H    0.132640
    19  C   -0.178627
    20  P    0.107351
    21  H    0.114392
    22  C   -0.395405
    23  H    0.136556
    24  H    0.137046
    25  H    0.138105
    26  C   -0.281346
    27  C    0.153012
    28  C   -0.320098
    29  C    0.087327
    30  C   -0.294242
    31  C    0.136260
    32  H    0.169591
    33  C    0.441172
    34  H    0.158516
    35  H    0.180912
    36  C    0.435437
    37  C   -0.281026
    38  C   -0.000270
    39  C   -0.201683
    40  C    0.083206
    41  C   -0.176460
    42  C    0.091973
    43  H    0.157433
    44  C    0.473267
    45  H    0.190612
    46  H    0.153891
    47  C    0.460067
    48  F   -0.151691
    49  F   -0.171765
    50  F   -0.178417
    51  F   -0.170007
    52  F   -0.164975
    53  F   -0.161032
    54  F   -0.163826
    55  F   -0.155729
    56  F   -0.161131
    57  F   -0.161533
    58  F   -0.154163
    59  F   -0.166244
    60  P    0.042089
    61  C    0.165741
    62  C    0.091324
    63  C   -0.328612
    64  C    0.173903
    65  C   -0.430226
    66  C    0.147253
    67  H    0.150291
    68  H    0.172147
    69  H    0.144646
    70  C   -0.113885
    71  C   -0.146266
    72  C   -0.177728
    73  C   -0.230246
    74  C   -0.002661
    75  C   -0.212944
    76  H    0.116212
    77  H    0.116184
    78  H    0.099076
    79  H    0.156839
    80  C    0.221818
    81  C    0.111124
    82  C   -0.350108
    83  C    0.063586
    84  C   -0.200792
    85  C   -0.013277
    86  H    0.109489
    87  H    0.195203
    88  C   -0.407928
    89  H    0.133357
    90  H    0.143687
    91  H    0.121294
    92  C   -0.463367
    93  H    0.139085
    94  H    0.135310
    95  H    0.162686
    96  O   -0.288322
    97  C   -0.214886
    98  H    0.118597
    99  H    0.120189
   100  H    0.136856
   101  C   -0.450540
   102  H    0.141041
   103  H    0.159862
   104  H    0.139018
   105  C   -0.406837
   106  H    0.123564
   107  H    0.146144
   108  H    0.136333
   109  O   -0.290634
   110  C   -0.205291
   111  H    0.135399
   112  H    0.118777
   113  H    0.114748
 Sum of Mulliken charges =  -0.00000

 Dipole moment (field-independent basis, Debye):
    X=             -3.9611    Y=             -2.3694    Z=             -0.0390  Tot=              4.6158
 Quadrupole moment (field-independent basis, Debye-Ang):
   XX=           -413.4328   YY=           -410.3122   ZZ=           -427.3365
   XY=              7.7656   XZ=             -2.6978   YZ=              8.5054

 Summary of Natural Population Analysis:

                                       Natural Population
                Natural  -----------------------------------------------
    Atom  No    Charge         Core      Valence    Rydberg      Total
 -----------------------------------------------------------------------
      C    1   -0.20789      1.99877     4.18362    0.02550     6.20789
      C    2   -0.20492      1.99878     4.18081    0.02533     6.20492
      C    3   -0.20485      1.99878     4.18067    0.02540     6.20485
      C    4   -0.21420      1.99877     4.19017    0.02526     6.21420
      C    5   -0.22077      1.99876     4.19708    0.02494     6.22077
      H    6    0.24638      0.00000     0.75229    0.00133     0.75362
      H    7    0.24726      0.00000     0.75143    0.00131     0.75274
      H    8    0.24942      0.00000     0.74925    0.00133     0.75058
      H    9    0.24575      0.00000     0.75294    0.00131     0.75425
      H   10    0.24327      0.00000     0.75527    0.00146     0.75673
     Fe   11   -0.31459     17.99261     8.28410    0.03788    26.31459
      C   12   -0.19779      1.99878     4.17631    0.02270     6.19779
      C   13   -0.19509      1.99870     4.17224    0.02416     6.19509
      C   14   -0.03459      1.99860     4.00155    0.03445     6.03459
      C   15   -0.00902      1.99860     3.97401    0.03640     6.00902
      C   16   -0.20479      1.99868     4.18376    0.02235     6.20479
      H   17    0.24420      0.00000     0.75425    0.00155     0.75580
      H   18    0.24518      0.00000     0.75323    0.00159     0.75482
      C   19   -0.47499      1.99925     4.45162    0.02412     6.47499
      P   20    0.85001      9.99804     4.12429    0.02766    14.14999
      H   21    0.24066      0.00000     0.75692    0.00242     0.75934
      C   22   -0.61659      1.99945     4.60396    0.01318     6.61659
      H   23    0.22286      0.00000     0.77610    0.00104     0.77714
      H   24    0.22601      0.00000     0.77255    0.00144     0.77399
      H   25    0.21421      0.00000     0.78453    0.00126     0.78579
      C   26   -0.14700      1.99907     4.13164    0.01630     6.14700
      C   27   -0.14826      1.99898     4.12486    0.02441     6.14826
      C   28   -0.16375      1.99904     4.14628    0.01843     6.16375
      C   29   -0.31808      1.99906     4.28781    0.03121     6.31808
      C   30   -0.15316      1.99902     4.13486    0.01928     6.15316
      C   31   -0.15302      1.99897     4.12898    0.02508     6.15302
      H   32    0.25555      0.00000     0.74310    0.00136     0.74445
      C   33    0.94931      1.99914     3.00362    0.04794     5.05069
      H   34    0.25133      0.00000     0.74725    0.00142     0.74867
      H   35    0.23916      0.00000     0.75869    0.00215     0.76084
      C   36    0.94979      1.99912     3.00351    0.04758     5.05021
      C   37   -0.16274      1.99906     4.14719    0.01649     6.16274
      C   38   -0.15141      1.99896     4.12720    0.02526     6.15141
      C   39   -0.19014      1.99901     4.17154    0.01959     6.19014
      C   40   -0.30049      1.99903     4.27068    0.03077     6.30049
      C   41   -0.16064      1.99902     4.14211    0.01951     6.16064
      C   42   -0.14909      1.99893     4.12458    0.02558     6.14909
      H   43    0.25254      0.00000     0.74608    0.00137     0.74746
      C   44    0.95293      1.99909     3.00140    0.04658     5.04707
      H   45    0.25130      0.00000     0.74656    0.00214     0.74870
      H   46    0.24336      0.00000     0.75418    0.00246     0.75664
      C   47    0.95274      1.99910     3.00098    0.04718     5.04726
      F   48   -0.30714      1.99992     7.29928    0.00794     9.30714
      F   49   -0.31303      1.99992     7.30475    0.00835     9.31303
      F   50   -0.32084      1.99993     7.31257    0.00834     9.32084
      F   51   -0.32026      1.99993     7.31177    0.00856     9.32026
      F   52   -0.30945      1.99992     7.30116    0.00837     9.30945
      F   53   -0.31161      1.99992     7.30339    0.00830     9.31161
      F   54   -0.31255      1.99993     7.30409    0.00853     9.31255
      F   55   -0.30848      1.99992     7.30012    0.00844     9.30848
      F   56   -0.30982      1.99992     7.30130    0.00860     9.30982
      F   57   -0.30971      1.99992     7.30123    0.00856     9.30971
      F   58   -0.30831      1.99992     7.29998    0.00840     9.30831
      F   59   -0.31431      1.99993     7.30594    0.00844     9.31431
      P   60    0.82779      9.99779     4.14484    0.02958    14.17221
      C   61    0.27026      1.99864     3.71086    0.02024     5.72974
      C   62   -0.04745      1.99904     4.02994    0.01847     6.04745
      C   63   -0.21193      1.99903     4.19484    0.01807     6.21193
      C   64   -0.31439      1.99904     4.28633    0.02903     6.31439
      C   65   -0.20826      1.99903     4.19224    0.01700     6.20826
      C   66   -0.05304      1.99903     4.03593    0.01807     6.05304
      H   67    0.22388      0.00000     0.77358    0.00254     0.77612
      H   68    0.22433      0.00000     0.77364    0.00203     0.77567
      H   69    0.25277      0.00000     0.74534    0.00189     0.74723
      C   70   -0.20880      1.99919     4.19206    0.01755     6.20880
      C   71   -0.20004      1.99920     4.18310    0.01774     6.20004
      C   72   -0.21873      1.99909     4.20184    0.01780     6.21873
      C   73   -0.04499      1.99893     4.02110    0.02497     6.04499
      C   74   -0.28669      1.99894     4.25773    0.03002     6.28669
      C   75   -0.20606      1.99911     4.18684    0.02012     6.20606
      H   76    0.22358      0.00000     0.77520    0.00122     0.77642
      H   77    0.22276      0.00000     0.77600    0.00124     0.77724
      H   78    0.22530      0.00000     0.77246    0.00223     0.77470
      H   79    0.23104      0.00000     0.76689    0.00207     0.76896
      C   80    0.27162      1.99863     3.70774    0.02201     5.72838
      C   81   -0.05054      1.99904     4.03327    0.01823     6.05054
      C   82   -0.20753      1.99904     4.19004    0.01845     6.20753
      C   83   -0.33134      1.99904     4.30343    0.02887     6.33134
      C   84   -0.22851      1.99902     4.20910    0.02039     6.22851
      C   85   -0.04899      1.99901     4.03089    0.01909     6.04899
      H   86    0.22231      0.00000     0.77604    0.00165     0.77769
      H   87    0.23059      0.00000     0.76690    0.00251     0.76941
      C   88   -0.63469      1.99944     4.62326    0.01200     6.63469
      H   89    0.21989      0.00000     0.77926    0.00085     0.78011
      H   90    0.23319      0.00000     0.76557    0.00125     0.76681
      H   91    0.21992      0.00000     0.77878    0.00130     0.78008
      C   92   -0.64375      1.99943     4.63229    0.01203     6.64375
      H   93    0.22355      0.00000     0.77546    0.00099     0.77645
      H   94    0.21812      0.00000     0.78045    0.00144     0.78188
      H   95    0.23534      0.00000     0.76339    0.00126     0.76466
      O   96   -0.49833      1.99977     6.47200    0.02656     8.49833
      C   97   -0.26434      1.99931     4.25223    0.01281     6.26434
      H   98    0.17191      0.00000     0.82588    0.00221     0.82809
      H   99    0.17280      0.00000     0.82503    0.00216     0.82720
      H  100    0.19484      0.00000     0.80374    0.00143     0.80516
      C  101   -0.64346      1.99943     4.63200    0.01203     6.64346
      H  102    0.22203      0.00000     0.77657    0.00140     0.77797
      H  103    0.23469      0.00000     0.76403    0.00127     0.76531
      H  104    0.22427      0.00000     0.77476    0.00097     0.77573
      C  105   -0.64504      1.99943     4.63213    0.01348     6.64504
      H  106    0.22908      0.00000     0.76974    0.00118     0.77092
      H  107    0.23391      0.00000     0.76477    0.00133     0.76609
      H  108    0.22152      0.00000     0.77755    0.00093     0.77848
      O  109   -0.49647      1.99978     6.47928    0.01741     8.49647
      C  110   -0.26630      1.99929     4.25335    0.01366     6.26630
      H  111    0.19324      0.00000     0.80535    0.00141     0.80676
      H  112    0.18168      0.00000     0.81652    0.00181     0.81832
      H  113    0.17360      0.00000     0.82420    0.00220     0.82640
 =======================================================================
   * Total *   -0.00000    169.93594   364.53735    1.52671   536.00000

 Normal termination of Gaussian 16 at Fri Mar  4 05:23:33 2022.
