 Gaussian 16, Revision B.01,

 ----------------------------------------------------------------------
 # PBE1PBE gen pseudo=read int=(grid=ultrafine) empiricaldispersion=GD3
 BJ nmr=giao
 ----------------------------------------------------------------------

 --------------
 W005_1_5 title
 --------------
 Symbolic Z-matrix:
 Charge =  0 Multiplicity = 1

 SCF Done:  E(RPBE1PBE) =  -5208.96366392     A.U. after   35 cycles

      1  C    Isotropic =   110.2916   Anisotropy =    93.7164

      2  C    Isotropic =   112.4381   Anisotropy =    90.9608

      3  C    Isotropic =   111.9887   Anisotropy =    89.2523

      4  C    Isotropic =   111.7644   Anisotropy =    89.5757

      5  C    Isotropic =   111.4150   Anisotropy =    92.6028

      6  H    Isotropic =    27.5960   Anisotropy =     5.2119

      7  H    Isotropic =    27.3479   Anisotropy =     6.4897

      8  H    Isotropic =    27.1414   Anisotropy =     5.3932

      9  H    Isotropic =    27.4387   Anisotropy =     3.6566

     10  H    Isotropic =    27.4779   Anisotropy =     4.1570

     11  Fe   Isotropic = -6331.3488   Anisotropy =  8582.9142

     12  C    Isotropic =   111.9455   Anisotropy =    88.1806

     13  C    Isotropic =   106.3410   Anisotropy =    86.5202

     14  C    Isotropic =    88.2632   Anisotropy =    96.2165

     15  C    Isotropic =    88.1413   Anisotropy =   101.9558

     16  C    Isotropic =   117.1782   Anisotropy =    87.5426

     17  H    Isotropic =    26.9654   Anisotropy =     7.0452

     18  H    Isotropic =    27.0219   Anisotropy =     7.0596

     19  C    Isotropic =   150.3304   Anisotropy =    20.4871

     20  P    Isotropic =   219.1475   Anisotropy =   175.1965

     21  H    Isotropic =    28.1251   Anisotropy =     5.1096

     22  C    Isotropic =   162.0433   Anisotropy =    12.4366

     23  H    Isotropic =    30.0581   Anisotropy =     7.8462

     24  H    Isotropic =    29.4259   Anisotropy =     9.0702

     25  H    Isotropic =    31.0533   Anisotropy =     3.7334

     26  C    Isotropic =    55.2678   Anisotropy =   189.5337

     27  C    Isotropic =    48.7212   Anisotropy =   157.4944

     28  C    Isotropic =    45.3757   Anisotropy =   195.6173

     29  C    Isotropic =    44.0863   Anisotropy =   187.7475

     30  C    Isotropic =    35.7717   Anisotropy =   206.7223

     31  C    Isotropic =    49.1786   Anisotropy =   157.8373

     32  H    Isotropic =    23.1576   Anisotropy =     9.8678

     33  C    Isotropic =    48.7291   Anisotropy =    14.6004

     34  H    Isotropic =    24.2539   Anisotropy =    16.4401

     35  H    Isotropic =    22.0142   Anisotropy =    13.4606

     36  C    Isotropic =    48.1177   Anisotropy =    14.8683

     37  C    Isotropic =    52.7379   Anisotropy =   199.0030

     38  C    Isotropic =    47.8438   Anisotropy =   164.8238

     39  C    Isotropic =    49.4408   Anisotropy =   196.0442

     40  C    Isotropic =    45.3458   Anisotropy =   186.8949

     41  C    Isotropic =    39.1942   Anisotropy =   212.8310

     42  C    Isotropic =    45.2735   Anisotropy =   171.9916

     43  H    Isotropic =    23.3284   Anisotropy =     8.1435

     44  C    Isotropic =    48.2040   Anisotropy =    12.8155

     45  H    Isotropic =    23.5107   Anisotropy =    14.0910

     46  H    Isotropic =    22.1964   Anisotropy =    15.4635

     47  C    Isotropic =    49.5234   Anisotropy =    13.6442

     48  F    Isotropic =   220.7893   Anisotropy =   151.2179

     49  F    Isotropic =   246.8685   Anisotropy =   123.9218

     50  F    Isotropic =   238.4833   Anisotropy =   138.8112

     51  F    Isotropic =   219.8564   Anisotropy =   150.1948

     52  F    Isotropic =   250.2450   Anisotropy =   126.2241

     53  F    Isotropic =   235.7921   Anisotropy =   145.2722

     54  F    Isotropic =   249.2066   Anisotropy =   137.4582

     55  F    Isotropic =   244.3851   Anisotropy =   140.1431

     56  F    Isotropic =   219.0719   Anisotropy =   150.8281

     57  F    Isotropic =   255.6310   Anisotropy =   129.2782

     58  F    Isotropic =   218.6803   Anisotropy =   157.6444

     59  F    Isotropic =   238.1657   Anisotropy =   137.6313

     60  P    Isotropic =   248.1933   Anisotropy =    93.2960

     61  C    Isotropic =    19.3098   Anisotropy =   128.7883

     62  C    Isotropic =    47.6975   Anisotropy =   170.5632

     63  C    Isotropic =    51.9211   Anisotropy =   153.0873

     64  C    Isotropic =    44.4094   Anisotropy =   173.6897

     65  C    Isotropic =    42.8399   Anisotropy =   167.9093

     66  C    Isotropic =    47.0948   Anisotropy =   173.3563

     67  H    Isotropic =    24.7057   Anisotropy =    15.1333

     68  H    Isotropic =    23.9224   Anisotropy =    12.3129

     69  Cl   Isotropic =   795.9611   Anisotropy =   262.2800

     70  Cl   Isotropic =   851.9993   Anisotropy =   429.3112

     71  H    Isotropic =    27.0848   Anisotropy =     4.6131

     72  C    Isotropic =    53.4495   Anisotropy =   184.3494

     73  C    Isotropic =    50.2116   Anisotropy =   186.8650

     74  C    Isotropic =    42.6294   Anisotropy =   166.6881

     75  C    Isotropic =    38.6438   Anisotropy =   190.2400

     76  C    Isotropic =    39.0511   Anisotropy =   176.3985

     77  C    Isotropic =    41.9270   Anisotropy =   197.0659

     78  H    Isotropic =    24.0436   Anisotropy =     5.8603

     79  H    Isotropic =    23.7282   Anisotropy =     5.0038

     80  H    Isotropic =    22.6234   Anisotropy =     8.3082

     81  H    Isotropic =    23.6056   Anisotropy =    11.1835

     82  C    Isotropic =    19.0312   Anisotropy =   136.0021

     83  C    Isotropic =    43.7592   Anisotropy =   183.5062

     84  C    Isotropic =    37.8862   Anisotropy =   185.0521

     85  C    Isotropic =    55.0077   Anisotropy =   169.5813

     86  C    Isotropic =    47.8876   Anisotropy =   168.8249

     87  C    Isotropic =    47.9052   Anisotropy =   179.3381

     88  H    Isotropic =    22.7162   Anisotropy =    13.8983

     89  H    Isotropic =    24.7842   Anisotropy =    11.8747

     90  Pd   Isotropic =  -171.5369   Anisotropy =   224.3746

     91  C    Isotropic =   167.7133   Anisotropy =    30.4919

     92  H    Isotropic =    29.8995   Anisotropy =     6.0005

     93  H    Isotropic =    29.1767   Anisotropy =     8.9337

     94  H    Isotropic =    28.8912   Anisotropy =     9.1168

     95  C    Isotropic =   169.3530   Anisotropy =    28.7727

     96  H    Isotropic =    29.5622   Anisotropy =     7.5392

     97  H    Isotropic =    28.7718   Anisotropy =     8.5865

     98  H    Isotropic =    29.0725   Anisotropy =     8.2106

     99  O    Isotropic =   257.5369   Anisotropy =   112.8064

    100  C    Isotropic =   126.5948   Anisotropy =    83.9431

    101  H    Isotropic =    28.0499   Anisotropy =     8.6112

    102  H    Isotropic =    27.7996   Anisotropy =     8.0284

    103  H    Isotropic =    27.7014   Anisotropy =    10.8120

    104  C    Isotropic =   168.3461   Anisotropy =    25.3763

    105  H    Isotropic =    28.6219   Anisotropy =     5.4816

    106  H    Isotropic =    29.2314   Anisotropy =    10.5467

    107  H    Isotropic =    29.1631   Anisotropy =     5.0019

    108  C    Isotropic =   166.8393   Anisotropy =    22.6956

    109  H    Isotropic =    28.8981   Anisotropy =     3.9682

    110  H    Isotropic =    29.3002   Anisotropy =    10.6888

    111  H    Isotropic =    29.9364   Anisotropy =     4.7705

    112  O    Isotropic =   253.3050   Anisotropy =   117.1924

    113  C    Isotropic =   126.9817   Anisotropy =    86.3486

    114  H    Isotropic =    27.5512   Anisotropy =    11.4037

    115  H    Isotropic =    27.6973   Anisotropy =    10.0978

    116  H    Isotropic =    28.1085   Anisotropy =    10.6984

 Normal termination of Gaussian 16 at Fri Mar  4 07:25:51 2022.
 Gaussian 16:  ES64L-G16RevB.01 20-Dec-2017

 ----------------------------------------------------------------------
 # PBE1PBE gen pseudo=read int=(grid=ultrafine) empiricaldispersion=GD3
 BJ pop=nbo guess=read geom=check
 ----------------------------------------------------------------------

 --------------
 W005_1_5 title
 --------------
 Structure from the checkpoint file:  "W005_1_5_SPE.chk"
 Charge =  0 Multiplicity = 1

                         Standard orientation:
 ---------------------------------------------------------------------
 Center     Atomic      Atomic             Coordinates (Angstroms)
 Number     Number       Type             X           Y           Z
 ---------------------------------------------------------------------
      1          6           0        2.665792   -4.313696    3.084713
      2          6           0        2.647251   -5.427963    2.180167
      3          6           0        1.408714   -6.130825    2.367217
      4          6           0        0.661826   -5.451010    3.388537
      5          6           0        1.437787   -4.323834    3.830529
      6          1           0        3.413508   -5.664772    1.441108
      7          1           0        1.070714   -6.996385    1.796413
      8          1           0       -0.332645   -5.731533    3.738265
      9          1           0        1.141033   -3.590903    4.581814
     10          1           0        3.463887   -3.576934    3.167888
     11         26           0        1.055289   -4.192950    1.811811
     12          6           0        0.573325   -4.326167   -0.157973
     13          6           0       -0.603558   -4.074015    0.621540
     14          6           0       -0.421553   -2.826936    1.320414
     15          6           0        0.890192   -2.317267    0.987862
     16          6           0        1.501813   -3.257040    0.075347
     17          1           0        0.760876   -5.209542   -0.769059
     18          1           0        2.512090   -3.208715   -0.328873
     19          6           0        1.379685   -0.953122    1.396713
     20         15           0        1.252679    0.100470   -0.171265
     21          1           0        0.629383   -0.520188    2.085457
     22          6           0        2.762128   -0.937261    2.063218
     23          1           0        3.149879    0.084466    2.208682
     24          1           0        2.684126   -1.423689    3.048951
     25          1           0        3.500282   -1.491457    1.462768
     26          6           0        5.569242   -0.644951   -1.715193
     27          6           0        5.304420    0.466885   -0.906048
     28          6           0        3.996594    0.740811   -0.475912
     29          6           0        2.938152   -0.086419   -0.880977
     30          6           0        3.191595   -1.165071   -1.743668
     31          6           0        4.505738   -1.458241   -2.127537
     32          1           0        6.590256   -0.867046   -2.033356
     33          6           0        6.438250    1.329304   -0.408598
     34          1           0        3.812304    1.607498    0.165375
     35          1           0        2.360646   -1.764191   -2.122818
     36          6           0        4.745915   -2.712665   -2.928745
     37          6           0        0.986761    4.607900    0.929110
     38          6           0        1.272928    3.686310    1.940355
     39          6           0        1.369538    2.314366    1.650538
     40          6           0        1.191925    1.864736    0.334168
     41          6           0        0.897755    2.791448   -0.688119
     42          6           0        0.794382    4.151140   -0.383812
     43          1           0        0.884319    5.670134    1.163300
     44          6           0        1.508472    4.147249    3.356809
     45          1           0        1.566101    1.613563    2.466252
     46          1           0        0.735775    2.433964   -1.711921
     47          6           0        0.501816    5.149131   -1.481189
     48          9           0        1.647592    5.731729   -1.929866
     49          9           0       -0.105274    4.566320   -2.545079
     50          9           0       -0.308036    6.148966   -1.035155
     51          9           0        2.833496    4.155796    3.664753
     52          9           0        1.029750    5.399435    3.576539
     53          9           0        0.903197    3.310170    4.253690
     54          9           0        7.508738    1.291486   -1.243805
     55          9           0        6.056879    2.627746   -0.273661
     56          9           0        6.868252    0.911820    0.817787
     57          9           0        6.013417   -2.786819   -3.408387
     58          9           0        4.546388   -3.817689   -2.137621
     59          9           0        3.890604   -2.820576   -3.972921
     60         15           0       -2.166377   -0.378759    0.037737
     61          6           0       -6.188563   -2.333720   -1.109272
     62          6           0       -6.196872   -0.979860   -0.713631
     63          6           0       -4.971195   -0.369947   -0.400040
     64          6           0       -3.771901   -1.092006   -0.487988
     65          6           0       -3.790085   -2.442984   -0.871087
     66          6           0       -4.994718   -3.085859   -1.184436
     67          1           0       -4.960560    0.683242   -0.100022
     68          1           0       -2.848538   -2.996988   -0.955634
     69         17           0       -2.190410   -0.711571   -3.190563
     70         17           0        0.932536    0.353380   -3.353474
     71          1           0       -1.481892   -4.715684    0.701414
     72          6           0       -3.393467   -1.058848    3.901613
     73          6           0       -2.640143   -2.160706    4.326781
     74          6           0       -1.674817   -2.704574    3.476554
     75          6           0       -1.420358   -2.167343    2.196498
     76          6           0       -2.172127   -1.041748    1.775678
     77          6           0       -3.167309   -0.519333    2.633353
     78          1           0       -4.167171   -0.628717    4.545390
     79          1           0       -2.811364   -2.603092    5.313524
     80          1           0       -1.090047   -3.572517    3.784465
     81          1           0       -3.791304    0.309954    2.289591
     82          6           0       -2.716416    4.215790    0.305484
     83          6           0       -2.934277    3.543582   -0.919158
     84          6           0       -2.787860    2.147742   -0.944334
     85          6           0       -2.424583    1.432180    0.216260
     86          6           0       -2.152840    2.137345    1.402811
     87          6           0       -2.315570    3.530311    1.471453
     88          1           0       -2.926891    1.607841   -1.889321
     89          1           0       -1.821190    1.607498    2.301042
     90         46           0       -0.492969   -0.354482   -1.571227
     91          6           0       -7.498172   -0.220652   -0.625235
     92          1           0       -7.356888    0.742642   -0.108654
     93          1           0       -7.911509   -0.002866   -1.627239
     94          1           0       -8.263038   -0.805049   -0.087540
     95          6           0       -5.017320   -4.537175   -1.596136
     96          1           0       -4.175613   -5.087522   -1.143829
     97          1           0       -5.962004   -5.017120   -1.294195
     98          1           0       -4.922464   -4.646177   -2.692641
     99          8           0       -7.405568   -2.948532   -1.375979
    100          6           0       -7.736349   -2.958576   -2.771591
    101          1           0       -7.792448   -1.931501   -3.179808
    102          1           0       -6.998292   -3.533714   -3.361734
    103          1           0       -8.723225   -3.439822   -2.851843
    104          6           0       -3.272835    4.310924   -2.173413
    105          1           0       -2.742879    5.275957   -2.190845
    106          1           0       -4.355942    4.523221   -2.245260
    107          1           0       -2.989514    3.733602   -3.067601
    108          6           0       -2.074142    4.281677    2.757111
    109          1           0       -1.520206    5.216465    2.578632
    110          1           0       -3.027160    4.564404    3.242004
    111          1           0       -1.504636    3.668272    3.472537
    112          8           0       -2.818081    5.597397    0.365070
    113          6           0       -4.160509    6.064532    0.543832
    114          1           0       -4.102036    7.162885    0.582929
    115          1           0       -4.814286    5.763570   -0.296252
    116          1           0       -4.595637    5.685742    1.488907
 ---------------------------------------------------------------------

 SCF Done:  E(RPBE1PBE) =  -5208.96366392     A.U. after    1 cycles

 The electronic state is 1-A.
 Alpha  occ. eigenvalues -- -101.62821-101.61920 -77.28158 -77.27255 -24.82475
 Alpha  occ. eigenvalues --  -24.82281 -24.82009 -24.81524 -24.81524 -24.81430
 Alpha  occ. eigenvalues --  -24.81146 -24.81001 -24.80999 -24.80959 -24.80846
 Alpha  occ. eigenvalues --  -24.80702 -19.23682 -19.22962 -10.49995 -10.49125
 Alpha  occ. eigenvalues --  -10.48935 -10.48710 -10.29441 -10.29285 -10.28914
 Alpha  occ. eigenvalues --  -10.28847 -10.28828 -10.28610 -10.28582 -10.28539
 Alpha  occ. eigenvalues --  -10.28453 -10.28433 -10.28376 -10.28332 -10.28079
 Alpha  occ. eigenvalues --  -10.28061 -10.27769 -10.27650 -10.27648 -10.27545
 Alpha  occ. eigenvalues --  -10.27492 -10.27207 -10.26822 -10.26069 -10.26025
 Alpha  occ. eigenvalues --  -10.25819 -10.25748 -10.25616 -10.25587 -10.25579
 Alpha  occ. eigenvalues --  -10.25549 -10.25533 -10.25498 -10.25468 -10.25449
 Alpha  occ. eigenvalues --  -10.25416 -10.25386 -10.25277 -10.25038 -10.25017
 Alpha  occ. eigenvalues --  -10.24964 -10.24540 -10.24478 -10.24266 -10.23792
 Alpha  occ. eigenvalues --  -10.23593 -10.23347 -10.22672 -10.22511 -10.22371
 Alpha  occ. eigenvalues --   -9.45327  -9.44437  -7.18530  -7.18057  -7.17989
 Alpha  occ. eigenvalues --   -7.17648  -7.17172  -7.17086  -6.67402  -6.66428
 Alpha  occ. eigenvalues --   -4.81000  -4.80962  -4.80719  -4.80037  -4.79975
 Alpha  occ. eigenvalues --   -4.79779  -3.62018  -3.52956  -2.26635  -2.22272
 Alpha  occ. eigenvalues --   -2.22253  -2.20818  -2.20523  -2.17154  -1.35831
 Alpha  occ. eigenvalues --   -1.34986  -1.34765  -1.34505  -1.27571  -1.27166
 Alpha  occ. eigenvalues --   -1.26718  -1.26592  -1.26302  -1.26149  -1.25994
 Alpha  occ. eigenvalues --   -1.25866  -1.09094  -1.08227  -0.94379  -0.93967
 Alpha  occ. eigenvalues --   -0.93401  -0.92093  -0.90770  -0.89741  -0.88794
 Alpha  occ. eigenvalues --   -0.86143  -0.85322  -0.84934  -0.83119  -0.82500
 Alpha  occ. eigenvalues --   -0.82266  -0.82048  -0.81538  -0.81293  -0.79120
 Alpha  occ. eigenvalues --   -0.78650  -0.75749  -0.75439  -0.75153  -0.75074
 Alpha  occ. eigenvalues --   -0.75047  -0.74872  -0.74576  -0.74386  -0.74319
 Alpha  occ. eigenvalues --   -0.74202  -0.73989  -0.73514  -0.72242  -0.71768
 Alpha  occ. eigenvalues --   -0.71140  -0.70754  -0.69567  -0.67763  -0.67659
 Alpha  occ. eigenvalues --   -0.67448  -0.67181  -0.67029  -0.65277  -0.64803
 Alpha  occ. eigenvalues --   -0.63550  -0.62953  -0.62790  -0.62541  -0.62222
 Alpha  occ. eigenvalues --   -0.61944  -0.61694  -0.61554  -0.61474  -0.61271
 Alpha  occ. eigenvalues --   -0.61118  -0.60842  -0.60417  -0.59017  -0.58694
 Alpha  occ. eigenvalues --   -0.57790  -0.57682  -0.57528  -0.56799  -0.56616
 Alpha  occ. eigenvalues --   -0.56219  -0.56102  -0.55122  -0.54560  -0.54406
 Alpha  occ. eigenvalues --   -0.54094  -0.53633  -0.52793  -0.52381  -0.52095
 Alpha  occ. eigenvalues --   -0.51865  -0.51756  -0.50676  -0.50358  -0.50199
 Alpha  occ. eigenvalues --   -0.49766  -0.49707  -0.49619  -0.49537  -0.49464
 Alpha  occ. eigenvalues --   -0.49212  -0.49054  -0.48858  -0.48504  -0.48166
 Alpha  occ. eigenvalues --   -0.48073  -0.47541  -0.47331  -0.46895  -0.46769
 Alpha  occ. eigenvalues --   -0.46414  -0.46123  -0.46081  -0.45983  -0.45796
 Alpha  occ. eigenvalues --   -0.45661  -0.45500  -0.45441  -0.45354  -0.45182
 Alpha  occ. eigenvalues --   -0.45064  -0.45026  -0.44825  -0.44560  -0.44486
 Alpha  occ. eigenvalues --   -0.44410  -0.44351  -0.44152  -0.44099  -0.44037
 Alpha  occ. eigenvalues --   -0.43905  -0.43843  -0.43705  -0.43636  -0.43557
 Alpha  occ. eigenvalues --   -0.43442  -0.43372  -0.43100  -0.42923  -0.42870
 Alpha  occ. eigenvalues --   -0.42577  -0.42215  -0.42206  -0.42016  -0.41928
 Alpha  occ. eigenvalues --   -0.41798  -0.41691  -0.41305  -0.40908  -0.40838
 Alpha  occ. eigenvalues --   -0.40304  -0.40115  -0.39826  -0.39726  -0.39454
 Alpha  occ. eigenvalues --   -0.39355  -0.39007  -0.38913  -0.38831  -0.38457
 Alpha  occ. eigenvalues --   -0.38177  -0.38002  -0.37841  -0.37343  -0.37142
 Alpha  occ. eigenvalues --   -0.36909  -0.36652  -0.36147  -0.35496  -0.35092
 Alpha  occ. eigenvalues --   -0.34240  -0.32726  -0.32366  -0.31888  -0.31656
 Alpha  occ. eigenvalues --   -0.31554  -0.30970  -0.30570  -0.30302  -0.30246
 Alpha  occ. eigenvalues --   -0.29697  -0.29417  -0.29160  -0.28970  -0.28706
 Alpha  occ. eigenvalues --   -0.28164  -0.27931  -0.27558  -0.26892  -0.26715
 Alpha  occ. eigenvalues --   -0.26314  -0.25922  -0.25626  -0.25342  -0.24975
 Alpha  occ. eigenvalues --   -0.24474  -0.24057  -0.23908  -0.23451
 Alpha virt. eigenvalues --   -0.08775  -0.07413  -0.07080  -0.06492  -0.05926
 Alpha virt. eigenvalues --   -0.05781  -0.04089  -0.03435  -0.02488  -0.02182
 Alpha virt. eigenvalues --   -0.01810  -0.01552  -0.01331  -0.00694   0.00610

 Mulliken charges:
               1
     1  C   -0.043908
     2  C   -0.059184
     3  C    0.029296
     4  C   -0.088371
     5  C   -0.174382
     6  H    0.132064
     7  H    0.126164
     8  H    0.136365
     9  H    0.133021
    10  H    0.130944
    11  Fe  -0.545889
    12  C   -0.040907
    13  C   -0.081860
    14  C    0.503350
    15  C    0.320789
    16  C   -0.256895
    17  H    0.123552
    18  H    0.181046
    19  C   -0.215860
    20  P    0.050411
    21  H    0.159227
    22  C   -0.431602
    23  H    0.149010
    24  H    0.156828
    25  H    0.159541
    26  C   -0.299438
    27  C    0.140928
    28  C   -0.343831
    29  C    0.239645
    30  C   -0.416012
    31  C    0.174966
    32  H    0.171523
    33  C    0.428397
    34  H    0.175740
    35  H    0.241644
    36  C    0.437057
    37  C   -0.266227
    38  C    0.100022
    39  C   -0.302733
    40  C    0.097440
    41  C   -0.205773
    42  C    0.125179
    43  H    0.167124
    44  C    0.456762
    45  H    0.169079
    46  H    0.209264
    47  C    0.453023
    48  F   -0.155919
    49  F   -0.157826
    50  F   -0.163419
    51  F   -0.153117
    52  F   -0.161486
    53  F   -0.174428
    54  F   -0.159537
    55  F   -0.160179
    56  F   -0.161698
    57  F   -0.159668
    58  F   -0.169238
    59  F   -0.144856
    60  P    0.001583
    61  C    0.203145
    62  C    0.087330
    63  C   -0.343373
    64  C    0.269667
    65  C   -0.360887
    66  C    0.128502
    67  H    0.142052
    68  H    0.171653
    69  Cl  -0.400844
    70  Cl  -0.397822
    71  H    0.135431
    72  C   -0.148730
    73  C   -0.122742
    74  C   -0.210291
    75  C   -0.206522
    76  C   -0.090056
    77  C   -0.167294
    78  H    0.126091
    79  H    0.124158
    80  H    0.088095
    81  H    0.157238
    82  C    0.240587
    83  C    0.084776
    84  C   -0.320624
    85  C    0.190719
    86  C   -0.339450
    87  C    0.059997
    88  H    0.164958
    89  H    0.164713
    90  Pd   0.241807
    91  C   -0.415950
    92  H    0.127134
    93  H    0.131082
    94  H    0.148840
    95  C   -0.463598
    96  H    0.129031
    97  H    0.159319
    98  H    0.150316
    99  O   -0.290905
   100  C   -0.214261
   101  H    0.122149
   102  H    0.125930
   103  H    0.136647
   104  C   -0.437141
   105  H    0.159870
   106  H    0.135078
   107  H    0.162937
   108  C   -0.419852
   109  H    0.148809
   110  H    0.137231
   111  H    0.136554
   112  O   -0.288134
   113  C   -0.223736
   114  H    0.142801
   115  H    0.122328
   116  H    0.118497
 Sum of Mulliken charges =  -0.00000

 Dipole moment (field-independent basis, Debye):
    X=             -5.1439    Y=             -2.0597    Z=              8.8884  Tot=             10.4740
 Quadrupole moment (field-independent basis, Debye-Ang):
   XX=           -445.9924   YY=           -443.4212   ZZ=           -485.3380
   XY=            -16.6435   XZ=              0.1963   YZ=             -0.0913

 Summary of Natural Population Analysis:

                                       Natural Population
                Natural  -----------------------------------------------
    Atom  No    Charge         Core      Valence    Rydberg      Total
 -----------------------------------------------------------------------
      C    1   -0.20574      1.99877     4.18161    0.02536     6.20574
      C    2   -0.20147      1.99878     4.17745    0.02524     6.20147
      C    3   -0.20105      1.99877     4.17661    0.02567     6.20105
      C    4   -0.21606      1.99876     4.19196    0.02533     6.21606
      C    5   -0.21966      1.99876     4.19590    0.02499     6.21966
      H    6    0.25115      0.00000     0.74754    0.00131     0.74885
      H    7    0.24938      0.00000     0.74930    0.00132     0.75062
      H    8    0.24666      0.00000     0.75203    0.00131     0.75334
      H    9    0.24774      0.00000     0.75093    0.00133     0.75226
      H   10    0.24704      0.00000     0.75158    0.00138     0.75296
     Fe   11   -0.29682     17.99254     8.26607    0.03821    26.29682
      C   12   -0.18669      1.99876     4.16549    0.02243     6.18669
      C   13   -0.19510      1.99870     4.17381    0.02259     6.19510
      C   14   -0.04314      1.99863     4.01169    0.03282     6.04314
      C   15   -0.01454      1.99862     3.97899    0.03693     6.01454
      C   16   -0.22213      1.99865     4.19937    0.02410     6.22213
      H   17    0.25147      0.00000     0.74717    0.00136     0.74853
      H   18    0.25841      0.00000     0.73951    0.00209     0.74159
      C   19   -0.51298      1.99925     4.48435    0.02938     6.51298
      P   20    1.19196      9.99569     3.76095    0.05139    13.80804
      H   21    0.25748      0.00000     0.74053    0.00199     0.74252
      C   22   -0.61931      1.99943     4.60582    0.01405     6.61931
      H   23    0.21790      0.00000     0.78104    0.00106     0.78210
      H   24    0.23149      0.00000     0.76724    0.00127     0.76851
      H   25    0.22470      0.00000     0.77369    0.00160     0.77530
      C   26   -0.14154      1.99907     4.12624    0.01623     6.14154
      C   27   -0.15211      1.99897     4.12821    0.02492     6.15211
      C   28   -0.16320      1.99902     4.14446    0.01972     6.16320
      C   29   -0.33425      1.99899     4.29980    0.03545     6.33425
      C   30   -0.13017      1.99902     4.11083    0.02032     6.13017
      C   31   -0.15765      1.99897     4.13372    0.02497     6.15765
      H   32    0.25657      0.00000     0.74211    0.00132     0.74343
      C   33    0.95066      1.99912     3.00287    0.04735     5.04934
      H   34    0.24393      0.00000     0.75414    0.00193     0.75607
      H   35    0.26847      0.00000     0.72957    0.00196     0.73153
      C   36    0.95173      1.99912     3.00181    0.04734     5.04827
      C   37   -0.13786      1.99906     4.12243    0.01637     6.13786
      C   38   -0.15401      1.99896     4.12963    0.02542     6.15401
      C   39   -0.16845      1.99901     4.15138    0.01806     6.16845
      C   40   -0.36195      1.99904     4.32896    0.03394     6.36195
      C   41   -0.14185      1.99903     4.12444    0.01838     6.14185
      C   42   -0.13661      1.99896     4.11249    0.02517     6.13661
      H   43    0.25750      0.00000     0.74107    0.00143     0.74250
      C   44    0.95162      1.99910     3.00271    0.04658     5.04838
      H   45    0.23645      0.00000     0.76158    0.00197     0.76355
      H   46    0.28540      0.00000     0.71233    0.00227     0.71460
      C   47    0.94985      1.99912     3.00360    0.04743     5.05015
      F   48   -0.30851      1.99992     7.30076    0.00782     9.30851
      F   49   -0.30268      1.99992     7.29440    0.00835     9.30268
      F   50   -0.30874      1.99992     7.30050    0.00831     9.30874
      F   51   -0.30763      1.99992     7.29965    0.00806     9.30763
      F   52   -0.30890      1.99992     7.30048    0.00850     9.30890
      F   53   -0.31957      1.99993     7.31142    0.00822     9.31957
      F   54   -0.30825      1.99992     7.29982    0.00850     9.30825
      F   55   -0.30962      1.99992     7.30138    0.00832     9.30962
      F   56   -0.31443      1.99993     7.30628    0.00822     9.31443
      F   57   -0.30842      1.99992     7.29994    0.00855     9.30842
      F   58   -0.32389      1.99993     7.31597    0.00798     9.32389
      F   59   -0.29865      1.99992     7.29010    0.00863     9.29865
      P   60    1.16226      9.99571     3.78832    0.05371    13.83774
      C   61    0.28417      1.99864     3.69711    0.02007     5.71583
      C   62   -0.04770      1.99904     4.03020    0.01847     6.04770
      C   63   -0.20881      1.99901     4.19130    0.01850     6.20881
      C   64   -0.32088      1.99899     4.28888    0.03301     6.32088
      C   65   -0.17830      1.99900     4.16085    0.01845     6.17830
      C   66   -0.04668      1.99903     4.02931    0.01834     6.04668
      H   67    0.22275      0.00000     0.77494    0.00231     0.77725
      H   68    0.22890      0.00000     0.76912    0.00198     0.77110
     Cl   69   -0.40208      9.99964     7.39416    0.00827    17.40208
     Cl   70   -0.40187      9.99965     7.39349    0.00872    17.40187
      H   71    0.25172      0.00000     0.74626    0.00202     0.74828
      C   72   -0.20854      1.99919     4.19173    0.01761     6.20854
      C   73   -0.19067      1.99921     4.17408    0.01739     6.19067
      C   74   -0.19985      1.99910     4.18333    0.01742     6.19985
      C   75   -0.02980      1.99894     4.00668    0.02418     6.02980
      C   76   -0.32283      1.99892     4.29248    0.03143     6.32283
      C   77   -0.19407      1.99911     4.17479    0.02016     6.19407
      H   78    0.22552      0.00000     0.77338    0.00110     0.77448
      H   79    0.22359      0.00000     0.77524    0.00117     0.77641
      H   80    0.22801      0.00000     0.76979    0.00220     0.77199
      H   81    0.23456      0.00000     0.76351    0.00194     0.76544
      C   82    0.28734      1.99861     3.69287    0.02118     5.71266
      C   83   -0.04682      1.99902     4.02945    0.01835     6.04682
      C   84   -0.19771      1.99904     4.18053    0.01814     6.19771
      C   85   -0.36243      1.99903     4.33268    0.03071     6.36243
      C   86   -0.21656      1.99902     4.19880    0.01873     6.21656
      C   87   -0.05386      1.99901     4.03486    0.01999     6.05386
      H   88    0.26102      0.00000     0.73698    0.00200     0.73898
      H   89    0.22584      0.00000     0.77188    0.00229     0.77416
     Pd   90   -0.14799     35.98845    10.12977    0.02977    46.14799
      C   91   -0.63497      1.99943     4.62370    0.01184     6.63497
      H   92    0.21734      0.00000     0.78179    0.00087     0.78266
      H   93    0.22336      0.00000     0.77528    0.00136     0.77664
      H   94    0.23484      0.00000     0.76393    0.00123     0.76516
      C   95   -0.64159      1.99943     4.63040    0.01176     6.64159
      H   96    0.22049      0.00000     0.77858    0.00093     0.77951
      H   97    0.23469      0.00000     0.76411    0.00120     0.76531
      H   98    0.22825      0.00000     0.77035    0.00140     0.77175
      O   99   -0.49921      1.99977     6.47332    0.02612     8.49921
      C  100   -0.26558      1.99930     4.25366    0.01261     6.26558
      H  101    0.17504      0.00000     0.82286    0.00210     0.82496
      H  102    0.17659      0.00000     0.82129    0.00212     0.82341
      H  103    0.19514      0.00000     0.80346    0.00140     0.80486
      C  104   -0.64773      1.99943     4.63544    0.01286     6.64773
      H  105    0.24128      0.00000     0.75755    0.00118     0.75872
      H  106    0.22037      0.00000     0.77822    0.00140     0.77963
      H  107    0.23874      0.00000     0.76034    0.00091     0.76126
      C  108   -0.64543      1.99943     4.63298    0.01302     6.64543
      H  109    0.23884      0.00000     0.75987    0.00130     0.76116
      H  110    0.22599      0.00000     0.77269    0.00132     0.77401
      H  111    0.22566      0.00000     0.77343    0.00092     0.77434
      O  112   -0.49667      1.99977     6.47033    0.02657     8.49667
      C  113   -0.26374      1.99930     4.25204    0.01240     6.26374
      H  114    0.19932      0.00000     0.79934    0.00134     0.80068
      H  115    0.17554      0.00000     0.82239    0.00207     0.82446
      H  116    0.17123      0.00000     0.82675    0.00202     0.82877
 =======================================================================
   * Total *    0.00000    225.91903   388.43659    1.64438   616.00000

 Normal termination of Gaussian 16 at Fri Mar  4 07:34:32 2022.
