 Gaussian 16, Revision B.01,

 ----------------------------------------------------------------------
 # PBE1PBE gen pseudo=read int=(grid=ultrafine) empiricaldispersion=GD3
 BJ nmr=giao
 ----------------------------------------------------------------------

 --------------
 W005_1_2 title
 --------------
 Symbolic Z-matrix:
 Charge =  0 Multiplicity = 1

 SCF Done:  E(RPBE1PBE) =  -4160.76702392     A.U. after   22 cycles

      1  C    Isotropic =   110.4398   Anisotropy =    92.3394

      2  C    Isotropic =   112.7407   Anisotropy =    88.4342

      3  C    Isotropic =   112.6746   Anisotropy =    86.6264

      4  C    Isotropic =   111.7710   Anisotropy =    90.4625

      5  C    Isotropic =   110.2081   Anisotropy =    92.8171

      6  H    Isotropic =    27.3953   Anisotropy =     6.3040

      7  H    Isotropic =    27.3263   Anisotropy =     6.9051

      8  H    Isotropic =    27.1352   Anisotropy =     4.8652

      9  H    Isotropic =    26.9820   Anisotropy =     4.4997

     10  H    Isotropic =    27.2718   Anisotropy =     4.0456

     11  Fe   Isotropic = -6309.9384   Anisotropy =  8502.6852

     12  C    Isotropic =   114.2453   Anisotropy =    89.0519

     13  C    Isotropic =   103.3313   Anisotropy =    78.8656

     14  C    Isotropic =    87.3886   Anisotropy =    96.3984

     15  C    Isotropic =    86.9563   Anisotropy =    92.7277

     16  C    Isotropic =   117.3134   Anisotropy =    85.5573

     17  H    Isotropic =    27.4133   Anisotropy =     7.6725

     18  H    Isotropic =    27.5843   Anisotropy =     3.2972

     19  C    Isotropic =   145.7056   Anisotropy =    31.1203

     20  P    Isotropic =   269.1799   Anisotropy =    90.9912

     21  H    Isotropic =    27.9261   Anisotropy =     3.0539

     22  C    Isotropic =   167.8840   Anisotropy =    11.3973

     23  H    Isotropic =    29.6550   Anisotropy =    10.0416

     24  H    Isotropic =    29.0544   Anisotropy =     9.6592

     25  H    Isotropic =    30.1519   Anisotropy =     5.8066

     26  C    Isotropic =    54.3028   Anisotropy =   193.6805

     27  C    Isotropic =    47.4317   Anisotropy =   162.1811

     28  C    Isotropic =    39.3457   Anisotropy =   191.0849

     29  C    Isotropic =    31.6840   Anisotropy =   213.1478

     30  C    Isotropic =    35.3329   Anisotropy =   198.4855

     31  C    Isotropic =    44.8349   Anisotropy =   166.8397

     32  H    Isotropic =    23.1433   Anisotropy =     9.4662

     33  C    Isotropic =    48.3230   Anisotropy =    14.0631

     34  H    Isotropic =    22.7996   Anisotropy =    12.1640

     35  H    Isotropic =    23.5340   Anisotropy =    14.7183

     36  C    Isotropic =    48.8528   Anisotropy =    13.5135

     37  C    Isotropic =    59.9367   Anisotropy =   186.0552

     38  C    Isotropic =    50.5372   Anisotropy =   158.7474

     39  C    Isotropic =    51.4704   Anisotropy =   195.8535

     40  C    Isotropic =    25.5847   Anisotropy =   212.7660

     41  C    Isotropic =    46.9654   Anisotropy =   202.4340

     42  C    Isotropic =    49.3657   Anisotropy =   166.3600

     43  H    Isotropic =    24.0447   Anisotropy =     8.8897

     44  C    Isotropic =    47.8378   Anisotropy =    15.2168

     45  H    Isotropic =    24.3826   Anisotropy =     6.0085

     46  H    Isotropic =    26.8039   Anisotropy =    14.0068

     47  C    Isotropic =    49.4536   Anisotropy =    12.5544

     48  F    Isotropic =   217.7641   Anisotropy =   151.0078

     49  F    Isotropic =   248.9975   Anisotropy =   126.4062

     50  F    Isotropic =   247.7053   Anisotropy =   133.7914

     51  F    Isotropic =   246.5904   Anisotropy =   121.6774

     52  F    Isotropic =   246.0830   Anisotropy =   140.3121

     53  F    Isotropic =   213.7137   Anisotropy =   141.1965

     54  F    Isotropic =   245.9298   Anisotropy =   138.9207

     55  F    Isotropic =   222.8796   Anisotropy =   142.4048

     56  F    Isotropic =   241.1673   Anisotropy =   139.6831

     57  F    Isotropic =   214.7406   Anisotropy =   148.6107

     58  F    Isotropic =   244.5483   Anisotropy =   142.2025

     59  F    Isotropic =   252.1293   Anisotropy =   135.0961

     60  P    Isotropic =   308.6572   Anisotropy =    47.9555

     61  C    Isotropic =    22.0071   Anisotropy =   123.9349

     62  C    Isotropic =    47.6114   Anisotropy =   170.5551

     63  C    Isotropic =    49.2529   Anisotropy =   152.0862

     64  C    Isotropic =    37.0483   Anisotropy =   191.6099

     65  C    Isotropic =    48.8878   Anisotropy =   153.9656

     66  C    Isotropic =    48.0986   Anisotropy =   172.1756

     67  H    Isotropic =    25.2707   Anisotropy =    16.8041

     68  H    Isotropic =    24.3697   Anisotropy =    13.3237

     69  H    Isotropic =    27.4377   Anisotropy =     3.9376

     70  C    Isotropic =    50.8642   Anisotropy =   189.6267

     71  C    Isotropic =    50.0051   Anisotropy =   189.0390

     72  C    Isotropic =    42.6129   Anisotropy =   165.0856

     73  C    Isotropic =    35.9739   Anisotropy =   191.2949

     74  C    Isotropic =    36.0934   Anisotropy =   204.7304

     75  C    Isotropic =    36.6497   Anisotropy =   197.8842

     76  H    Isotropic =    23.7776   Anisotropy =     4.0739

     77  H    Isotropic =    23.4874   Anisotropy =     4.3174

     78  H    Isotropic =    22.1815   Anisotropy =     8.4059

     79  H    Isotropic =    23.7193   Anisotropy =     8.6009

     80  C    Isotropic =    19.7494   Anisotropy =   135.8093

     81  C    Isotropic =    45.8756   Anisotropy =   180.2956

     82  C    Isotropic =    44.2813   Anisotropy =   158.6798

     83  C    Isotropic =    50.5752   Anisotropy =   193.3412

     84  C    Isotropic =    45.6763   Anisotropy =   178.1161

     85  C    Isotropic =    45.0430   Anisotropy =   184.0230

     86  H    Isotropic =    24.0303   Anisotropy =     9.4406

     87  H    Isotropic =    24.8919   Anisotropy =     9.7024

     88  C    Isotropic =   167.3553   Anisotropy =    28.8758

     89  H    Isotropic =    30.0543   Anisotropy =     6.9457

     90  H    Isotropic =    29.0158   Anisotropy =     9.1821

     91  H    Isotropic =    29.3521   Anisotropy =     8.3864

     92  C    Isotropic =   169.5581   Anisotropy =    28.8922

     93  H    Isotropic =    29.5447   Anisotropy =     7.3502

     94  H    Isotropic =    29.3705   Anisotropy =     7.3006

     95  H    Isotropic =    28.7786   Anisotropy =     8.4429

     96  O    Isotropic =   260.6642   Anisotropy =   106.0649

     97  C    Isotropic =   126.3967   Anisotropy =    84.0423

     98  H    Isotropic =    27.9010   Anisotropy =     7.4349

     99  H    Isotropic =    28.2287   Anisotropy =     8.2148

    100  H    Isotropic =    27.7456   Anisotropy =    10.4579

    101  C    Isotropic =   169.6797   Anisotropy =    27.8685

    102  H    Isotropic =    28.8990   Anisotropy =     4.4335

    103  H    Isotropic =    29.2658   Anisotropy =    10.0941

    104  H    Isotropic =    29.3797   Anisotropy =    10.9044

    105  C    Isotropic =   168.0010   Anisotropy =    23.5419

    106  H    Isotropic =    28.9295   Anisotropy =     4.4770

    107  H    Isotropic =    29.4431   Anisotropy =    10.9981

    108  H    Isotropic =    30.0353   Anisotropy =     6.7065

    109  O    Isotropic =   255.3608   Anisotropy =   114.3123

    110  C    Isotropic =   126.1800   Anisotropy =    87.4048

    111  H    Isotropic =    27.6516   Anisotropy =    11.4375

    112  H    Isotropic =    27.8727   Anisotropy =     9.9903

    113  H    Isotropic =    28.1558   Anisotropy =    10.7793

 Normal termination of Gaussian 16 at Fri Mar  4 03:26:02 2022.
 Gaussian 16:  ES64L-G16RevB.01 20-Dec-2017

 ----------------------------------------------------------------------
 # PBE1PBE gen pseudo=read int=(grid=ultrafine) empiricaldispersion=GD3
 BJ pop=nbo guess=read geom=check
 ----------------------------------------------------------------------

 --------------
 W005_1_2 title
 --------------
 Structure from the checkpoint file:  "W005_1_2_SPE_NoPd.chk"
 Charge =  0 Multiplicity = 1

                         Standard orientation:
 ---------------------------------------------------------------------
 Center     Atomic      Atomic             Coordinates (Angstroms)
 Number     Number       Type             X           Y           Z
 ---------------------------------------------------------------------
      1          6           0        2.262454    5.991971    0.289431
      2          6           0        3.184657    6.255081   -0.779178
      3          6           0        4.446258    5.660026   -0.433447
      4          6           0        4.304723    5.029206    0.849476
      5          6           0        2.952734    5.235760    1.296631
      6          1           0        2.952263    6.764928   -1.714773
      7          1           0        5.338220    5.642054   -1.060672
      8          1           0        5.079211    4.465053    1.370627
      9          1           0        2.515507    4.883726    2.232022
     10          1           0        1.215633    6.294856    0.323080
     11         26           0        2.978411    4.236222   -0.504085
     12          6           0        3.264612    3.293634   -2.303351
     13          6           0        3.693126    2.456510   -1.227285
     14          6           0        2.572215    2.217973   -0.348788
     15          6           0        1.439106    2.959443   -0.886963
     16          6           0        1.885104    3.598966   -2.100406
     17          1           0        3.889181    3.670175   -3.113058
     18          1           0        1.273600    4.226446   -2.744382
     19          6           0        0.016278    2.960511   -0.384613
     20         15           0       -0.692804    1.245097   -0.826066
     21          1           0        0.008962    3.019608    0.717990
     22          6           0       -0.828201    4.099177   -0.974599
     23          1           0       -1.805561    4.182572   -0.475993
     24          1           0       -0.290218    5.051523   -0.837193
     25          1           0       -0.997064    3.943577   -2.052396
     26          6           0       -5.090911    0.964651   -2.281766
     27          6           0       -4.059145    0.320579   -2.977431
     28          6           0       -2.721756    0.496345   -2.596306
     29          6           0       -2.404625    1.325871   -1.507215
     30          6           0       -3.437779    1.973620   -0.809181
     31          6           0       -4.772626    1.792470   -1.197617
     32          1           0       -6.133725    0.807855   -2.567589
     33          6           0       -4.378871   -0.552182   -4.167631
     34          1           0       -1.921335   -0.018253   -3.132923
     35          1           0       -3.222572    2.579465    0.075128
     36          6           0       -5.866595    2.378105   -0.339450
     37          6           0       -2.024021   -0.547785    3.303650
     38          6           0       -0.842563    0.197801    3.219362
     39          6           0       -0.417369    0.741955    1.997164
     40          6           0       -1.156551    0.511065    0.822970
     41          6           0       -2.307478   -0.298252    0.904223
     42          6           0       -2.749275   -0.796989    2.133137
     43          1           0       -2.363063   -0.945263    4.263088
     44          6           0        0.027036    0.326119    4.443216
     45          1           0        0.503985    1.327763    1.977882
     46          1           0       -2.881125   -0.542247    0.009376
     47          6           0       -4.067541   -1.531152    2.194256
     48          9           0       -5.096090   -0.661990    2.397777
     49          9           0       -4.329314   -2.197244    1.039605
     50          9           0       -4.095319   -2.432414    3.215885
     51          9           0        0.806456    1.438164    4.411394
     52          9           0       -0.705324    0.363996    5.587009
     53          9           0        0.869852   -0.752123    4.551169
     54          9           0       -5.620567   -1.100471   -4.065777
     55          9           0       -4.338880    0.150669   -5.326809
     56          9           0       -3.484679   -1.576917   -4.287366
     57          9           0       -6.117302    1.574439    0.733431
     58          9           0       -5.517245    3.599288    0.151309
     59          9           0       -7.031541    2.520011   -1.022613
     60         15           0        1.805164   -1.003717   -0.725510
     61          6           0        5.236753   -3.874353   -1.866543
     62          6           0        4.011471   -4.432438   -1.446292
     63          6           0        2.961139   -3.560744   -1.116983
     64          6           0        3.132679   -2.168936   -1.200584
     65          6           0        4.357594   -1.638634   -1.643415
     66          6           0        5.426220   -2.478688   -1.983936
     67          1           0        2.003250   -3.978836   -0.791739
     68          1           0        4.471149   -0.556144   -1.760292
     69          1           0        4.698874    2.067290   -1.064117
     70          6           0        3.594638   -0.411707    2.918896
     71          6           0        3.636569    0.977689    3.075650
     72          6           0        3.235501    1.805590    2.021571
     73          6           0        2.722643    1.291222    0.811681
     74          6           0        2.588007   -0.123644    0.700225
     75          6           0        3.088477   -0.948724    1.731219
     76          1           0        3.953920   -1.076215    3.710549
     77          1           0        4.014722    1.420642    4.002396
     78          1           0        3.343611    2.887668    2.097938
     79          1           0        3.095264   -2.033636    1.586915
     80          6           0       -1.591946   -3.814653    0.722460
     81          6           0       -1.523609   -3.393034   -0.624712
     82          6           0       -0.472963   -2.537077   -0.992870
     83          6           0        0.476787   -2.090064   -0.051290
     84          6           0        0.350958   -2.489880    1.289430
     85          6           0       -0.675944   -3.357579    1.693970
     86          1           0       -0.405012   -2.183784   -2.029969
     87          1           0        1.019170   -2.092715    2.056870
     88          6           0        3.844453   -5.930739   -1.377470
     89          1           0        2.805159   -6.197533   -1.126141
     90          1           0        4.105164   -6.401976   -2.339992
     91          1           0        4.504719   -6.383845   -0.615758
     92          6           0        6.721661   -1.909997   -2.508855
     93          1           0        6.537991   -0.967242   -3.049629
     94          1           0        7.437252   -1.690148   -1.694041
     95          1           0        7.208592   -2.621249   -3.195018
     96          8           0        6.250341   -4.746246   -2.241669
     97          6           0        7.243984   -4.933348   -1.227689
     98          1           0        7.771269   -3.990060   -0.989161
     99          1           0        6.798434   -5.336477   -0.297460
    100          1           0        7.965515   -5.659928   -1.631794
    101          6           0       -2.586331   -3.804190   -1.613751
    102          1           0       -3.555165   -3.926190   -1.103235
    103          1           0       -2.345294   -4.767421   -2.100765
    104          1           0       -2.698232   -3.055458   -2.414124
    105          6           0       -0.831332   -3.759470    3.140426
    106          1           0       -1.889473   -3.720814    3.443429
    107          1           0       -0.483488   -4.794369    3.315460
    108          1           0       -0.246127   -3.092117    3.793669
    109          8           0       -2.640877   -4.618326    1.139400
    110          6           0       -2.409816   -6.015454    0.918722
    111          1           0       -3.299319   -6.538755    1.300784
    112          1           0       -2.284419   -6.243402   -0.156678
    113          1           0       -1.513189   -6.365420    1.465680
 ---------------------------------------------------------------------

 SCF Done:  E(RPBE1PBE) =  -4160.76702392     A.U. after    1 cycles

 The electronic state is 1-A.
 Alpha  occ. eigenvalues --  -77.22165 -77.19671 -24.81619 -24.81549 -24.81498
 Alpha  occ. eigenvalues --  -24.81438 -24.81374 -24.80940 -24.80896 -24.80759
 Alpha  occ. eigenvalues --  -24.80395 -24.80284 -24.80229 -24.79893 -19.22575
 Alpha  occ. eigenvalues --  -19.22332 -10.49270 -10.48977 -10.48376 -10.47857
 Alpha  occ. eigenvalues --  -10.28737 -10.28585 -10.28218 -10.28043 -10.27772
 Alpha  occ. eigenvalues --  -10.27760 -10.27566 -10.27425 -10.27319 -10.27263
 Alpha  occ. eigenvalues --  -10.27255 -10.27094 -10.26917 -10.26701 -10.26335
 Alpha  occ. eigenvalues --  -10.26083 -10.26045 -10.25899 -10.25772 -10.25584
 Alpha  occ. eigenvalues --  -10.24855 -10.24679 -10.24635 -10.24622 -10.24584
 Alpha  occ. eigenvalues --  -10.24540 -10.24487 -10.24382 -10.24335 -10.24225
 Alpha  occ. eigenvalues --  -10.24040 -10.24029 -10.23923 -10.23885 -10.23747
 Alpha  occ. eigenvalues --  -10.23723 -10.23712 -10.23648 -10.23495 -10.23227
 Alpha  occ. eigenvalues --  -10.23196 -10.22828 -10.22444 -10.22208 -10.22153
 Alpha  occ. eigenvalues --  -10.22071 -10.21897 -10.21871  -6.61730  -6.59275
 Alpha  occ. eigenvalues --   -4.75342  -4.75279  -4.74851  -4.72877  -4.72852
 Alpha  occ. eigenvalues --   -4.72406  -3.60937  -2.25547  -2.21193  -2.21168
 Alpha  occ. eigenvalues --   -1.35158  -1.34823  -1.34294  -1.33748  -1.26731
 Alpha  occ. eigenvalues --   -1.26666  -1.26649  -1.26159  -1.26028  -1.25508
 Alpha  occ. eigenvalues --   -1.25487  -1.25097  -1.08012  -1.07637  -0.93473
 Alpha  occ. eigenvalues --   -0.92932  -0.91917  -0.90970  -0.88861  -0.88195
 Alpha  occ. eigenvalues --   -0.87614  -0.84999  -0.84262  -0.83620  -0.82026
 Alpha  occ. eigenvalues --   -0.81029  -0.80833  -0.80476  -0.80009  -0.79771
 Alpha  occ. eigenvalues --   -0.77540  -0.77096  -0.75142  -0.74222  -0.74159
 Alpha  occ. eigenvalues --   -0.74154  -0.74008  -0.73307  -0.73204  -0.73088
 Alpha  occ. eigenvalues --   -0.73001  -0.72979  -0.70273  -0.69950  -0.69841
 Alpha  occ. eigenvalues --   -0.69676  -0.68598  -0.67303  -0.66968  -0.66042
 Alpha  occ. eigenvalues --   -0.65768  -0.65296  -0.63844  -0.63084  -0.62325
 Alpha  occ. eigenvalues --   -0.62157  -0.61939  -0.61727  -0.61689  -0.61464
 Alpha  occ. eigenvalues --   -0.61236  -0.60998  -0.60677  -0.60003  -0.59916
 Alpha  occ. eigenvalues --   -0.59814  -0.59360  -0.57609  -0.57260  -0.56686
 Alpha  occ. eigenvalues --   -0.56621  -0.56334  -0.56102  -0.55227  -0.55106
 Alpha  occ. eigenvalues --   -0.54587  -0.54398  -0.53563  -0.53246  -0.52846
 Alpha  occ. eigenvalues --   -0.52727  -0.51901  -0.51162  -0.50710  -0.50674
 Alpha  occ. eigenvalues --   -0.50278  -0.49983  -0.49683  -0.49563  -0.49215
 Alpha  occ. eigenvalues --   -0.49200  -0.48963  -0.48864  -0.48376  -0.48175
 Alpha  occ. eigenvalues --   -0.47914  -0.47663  -0.47617  -0.46758  -0.46740
 Alpha  occ. eigenvalues --   -0.46568  -0.46322  -0.46140  -0.45849  -0.45748
 Alpha  occ. eigenvalues --   -0.45552  -0.45323  -0.44986  -0.44952  -0.44828
 Alpha  occ. eigenvalues --   -0.44651  -0.44615  -0.44409  -0.44184  -0.44001
 Alpha  occ. eigenvalues --   -0.43942  -0.43850  -0.43749  -0.43639  -0.43550
 Alpha  occ. eigenvalues --   -0.43434  -0.43390  -0.43269  -0.43049  -0.42952
 Alpha  occ. eigenvalues --   -0.42771  -0.42693  -0.42657  -0.42623  -0.42422
 Alpha  occ. eigenvalues --   -0.42223  -0.42129  -0.41744  -0.41679  -0.41447
 Alpha  occ. eigenvalues --   -0.41285  -0.41148  -0.40920  -0.40892  -0.40698
 Alpha  occ. eigenvalues --   -0.40009  -0.39994  -0.39905  -0.39574  -0.39402
 Alpha  occ. eigenvalues --   -0.38878  -0.38507  -0.38443  -0.38270  -0.37786
 Alpha  occ. eigenvalues --   -0.37689  -0.37141  -0.36685  -0.36386  -0.36139
 Alpha  occ. eigenvalues --   -0.35953  -0.35818  -0.35569  -0.35252  -0.35102
 Alpha  occ. eigenvalues --   -0.33404  -0.33087  -0.31748  -0.31165  -0.30483
 Alpha  occ. eigenvalues --   -0.29401  -0.29064  -0.28941  -0.28848  -0.28673
 Alpha  occ. eigenvalues --   -0.27602  -0.27246  -0.26891  -0.26641  -0.26560
 Alpha  occ. eigenvalues --   -0.25810  -0.25740  -0.24918  -0.24713  -0.24056
 Alpha  occ. eigenvalues --   -0.22910  -0.22862  -0.19781
 Alpha virt. eigenvalues --   -0.07232  -0.06439  -0.05183  -0.04511  -0.03559
 Alpha virt. eigenvalues --   -0.02517  -0.01917  -0.01562  -0.01134  -0.00795
 Alpha virt. eigenvalues --   -0.00648  -0.00488   0.00141   0.01243   0.01891

 Mulliken charges:
               1
     1  C   -0.077968
     2  C   -0.046970
     3  C    0.010070
     4  C   -0.138465
     5  C   -0.173980
     6  H    0.120193
     7  H    0.121923
     8  H    0.134297
     9  H    0.138382
    10  H    0.120391
    11  Fe  -0.460511
    12  C   -0.102496
    13  C   -0.071472
    14  C    0.454643
    15  C    0.259354
    16  C   -0.190565
    17  H    0.115429
    18  H    0.132147
    19  C   -0.192093
    20  P    0.105677
    21  H    0.131200
    22  C   -0.405341
    23  H    0.133004
    24  H    0.138622
    25  H    0.140758
    26  C   -0.294842
    27  C    0.149802
    28  C   -0.308235
    29  C    0.074522
    30  C   -0.300137
    31  C    0.143753
    32  H    0.169717
    33  C    0.446225
    34  H    0.162129
    35  H    0.171581
    36  C    0.434568
    37  C   -0.294805
    38  C   -0.001129
    39  C   -0.221420
    40  C    0.098097
    41  C   -0.153463
    42  C    0.043101
    43  H    0.155830
    44  C    0.466883
    45  H    0.208850
    46  H    0.183882
    47  C    0.450418
    48  F   -0.155570
    49  F   -0.164342
    50  F   -0.170703
    51  F   -0.166867
    52  F   -0.161699
    53  F   -0.171075
    54  F   -0.162451
    55  F   -0.152570
    56  F   -0.164358
    57  F   -0.146791
    58  F   -0.165176
    59  F   -0.161554
    60  P    0.052568
    61  C    0.192948
    62  C    0.088253
    63  C   -0.297094
    64  C    0.108666
    65  C   -0.330367
    66  C    0.118443
    67  H    0.143077
    68  H    0.125102
    69  H    0.130634
    70  C   -0.139234
    71  C   -0.135948
    72  C   -0.109497
    73  C   -0.253608
    74  C   -0.081794
    75  C   -0.173437
    76  H    0.115155
    77  H    0.116429
    78  H    0.082194
    79  H    0.177636
    80  C    0.282009
    81  C    0.046324
    82  C   -0.271758
    83  C    0.019950
    84  C   -0.158529
    85  C   -0.015138
    86  H    0.114519
    87  H    0.146739
    88  C   -0.406487
    89  H    0.127803
    90  H    0.143741
    91  H    0.120351
    92  C   -0.467470
    93  H    0.136229
    94  H    0.137639
    95  H    0.161251
    96  O   -0.289407
    97  C   -0.214414
    98  H    0.119576
    99  H    0.117901
   100  H    0.136004
   101  C   -0.446003
   102  H    0.164208
   103  H    0.137217
   104  H    0.139253
   105  C   -0.432738
   106  H    0.151974
   107  H    0.131650
   108  H    0.136908
   109  O   -0.292309
   110  C   -0.227166
   111  H    0.139994
   112  H    0.121146
   113  H    0.120511
 Sum of Mulliken charges =  -0.00000

 Dipole moment (field-independent basis, Debye):
    X=              4.4946    Y=              0.6423    Z=             -0.2362  Tot=              4.5464
 Quadrupole moment (field-independent basis, Debye-Ang):
   XX=           -417.8159   YY=           -393.8061   ZZ=           -429.4984
   XY=              1.5727   XZ=              7.7922   YZ=            -16.2252

 Summary of Natural Population Analysis:

                                       Natural Population
                Natural  -----------------------------------------------
    Atom  No    Charge         Core      Valence    Rydberg      Total
 -----------------------------------------------------------------------
      C    1   -0.20780      1.99877     4.18350    0.02553     6.20780
      C    2   -0.20506      1.99878     4.18107    0.02521     6.20506
      C    3   -0.20489      1.99877     4.18055    0.02556     6.20489
      C    4   -0.21549      1.99876     4.19159    0.02514     6.21549
      C    5   -0.22032      1.99876     4.19637    0.02519     6.22032
      H    6    0.24637      0.00000     0.75229    0.00134     0.75363
      H    7    0.24716      0.00000     0.75151    0.00133     0.75284
      H    8    0.24917      0.00000     0.74950    0.00133     0.75083
      H    9    0.24650      0.00000     0.75219    0.00131     0.75350
      H   10    0.24295      0.00000     0.75560    0.00145     0.75705
     Fe   11   -0.31553     17.99267     8.28500    0.03786    26.31553
      C   12   -0.19398      1.99879     4.17241    0.02278     6.19398
      C   13   -0.19005      1.99870     4.16809    0.02326     6.19005
      C   14   -0.03270      1.99860     4.00023    0.03387     6.03270
      C   15   -0.01035      1.99860     3.97577    0.03598     6.01035
      C   16   -0.20503      1.99869     4.18328    0.02306     6.20503
      H   17    0.24447      0.00000     0.75402    0.00151     0.75553
      H   18    0.24426      0.00000     0.75385    0.00189     0.75574
      C   19   -0.47338      1.99926     4.44981    0.02431     6.47338
      P   20    0.85139      9.99801     4.12250    0.02810    14.14861
      H   21    0.24291      0.00000     0.75461    0.00249     0.75709
      C   22   -0.61681      1.99945     4.60441    0.01295     6.61681
      H   23    0.22041      0.00000     0.77863    0.00096     0.77959
      H   24    0.22484      0.00000     0.77372    0.00144     0.77516
      H   25    0.21565      0.00000     0.78309    0.00126     0.78435
      C   26   -0.14485      1.99907     4.12961    0.01618     6.14485
      C   27   -0.15234      1.99897     4.12910    0.02427     6.15234
      C   28   -0.15888      1.99904     4.14144    0.01840     6.15888
      C   29   -0.32729      1.99905     4.29781    0.03043     6.32729
      C   30   -0.14697      1.99902     4.12900    0.01895     6.14697
      C   31   -0.15227      1.99897     4.12845    0.02485     6.15227
      H   32    0.25609      0.00000     0.74255    0.00135     0.74391
      C   33    0.95045      1.99913     3.00274    0.04768     5.04955
      H   34    0.25211      0.00000     0.74652    0.00137     0.74789
      H   35    0.24055      0.00000     0.75722    0.00223     0.75945
      C   36    0.94935      1.99912     3.00386    0.04767     5.05065
      C   37   -0.16615      1.99906     4.15033    0.01677     6.16615
      C   38   -0.15307      1.99895     4.12930    0.02482     6.15307
      C   39   -0.19503      1.99901     4.17667    0.01935     6.19503
      C   40   -0.29568      1.99902     4.26563    0.03103     6.29568
      C   41   -0.16838      1.99902     4.14860    0.02076     6.16838
      C   42   -0.14531      1.99893     4.12025    0.02613     6.14531
      H   43    0.25187      0.00000     0.74669    0.00144     0.74813
      C   44    0.95322      1.99909     3.00107    0.04662     5.04678
      H   45    0.25076      0.00000     0.74717    0.00206     0.74924
      H   46    0.24454      0.00000     0.75259    0.00287     0.75546
      C   47    0.95275      1.99909     3.00135    0.04681     5.04725
      F   48   -0.31075      1.99992     7.30296    0.00786     9.31075
      F   49   -0.30886      1.99992     7.30050    0.00844     9.30886
      F   50   -0.31467      1.99992     7.30661    0.00813     9.31467
      F   51   -0.31071      1.99992     7.30278    0.00801     9.31071
      F   52   -0.31189      1.99992     7.30402    0.00794     9.31189
      F   53   -0.32177      1.99993     7.31385    0.00800     9.32177
      F   54   -0.31056      1.99993     7.30211    0.00853     9.31056
      F   55   -0.30651      1.99992     7.29811    0.00847     9.30651
      F   56   -0.31656      1.99992     7.30766    0.00898     9.31656
      F   57   -0.30650      1.99993     7.29811    0.00846     9.30650
      F   58   -0.31308      1.99993     7.30475    0.00841     9.31308
      F   59   -0.30967      1.99992     7.30119    0.00856     9.30967
      P   60    0.83143      9.99775     4.14155    0.02927    14.16857
      C   61    0.26226      1.99864     3.71867    0.02043     5.73774
      C   62   -0.04497      1.99904     4.02744    0.01849     6.04497
      C   63   -0.22021      1.99903     4.20444    0.01674     6.22021
      C   64   -0.31857      1.99905     4.28975    0.02977     6.31857
      C   65   -0.20848      1.99903     4.19260    0.01685     6.20848
      C   66   -0.04812      1.99903     4.03096    0.01813     6.04812
      H   67    0.22475      0.00000     0.77274    0.00250     0.77525
      H   68    0.21561      0.00000     0.78237    0.00202     0.78439
      H   69    0.24708      0.00000     0.75120    0.00172     0.75292
      C   70   -0.20869      1.99918     4.19197    0.01754     6.20869
      C   71   -0.19378      1.99920     4.17693    0.01765     6.19378
      C   72   -0.21314      1.99909     4.19637    0.01768     6.21314
      C   73   -0.04407      1.99893     4.02004    0.02511     6.04407
      C   74   -0.29505      1.99895     4.26625    0.02986     6.29505
      C   75   -0.20439      1.99912     4.18522    0.02006     6.20439
      H   76    0.22227      0.00000     0.77651    0.00122     0.77773
      H   77    0.22190      0.00000     0.77686    0.00124     0.77810
      H   78    0.22555      0.00000     0.77222    0.00222     0.77445
      H   79    0.23053      0.00000     0.76724    0.00223     0.76947
      C   80    0.27686      1.99860     3.70296    0.02158     5.72314
      C   81   -0.05576      1.99901     4.03842    0.01833     6.05576
      C   82   -0.21655      1.99902     4.19916    0.01837     6.21655
      C   83   -0.32079      1.99904     4.29076    0.03098     6.32079
      C   84   -0.21865      1.99900     4.20003    0.01962     6.21865
      C   85   -0.04707      1.99901     4.02813    0.01994     6.04707
      H   86    0.22385      0.00000     0.77410    0.00205     0.77615
      H   87    0.23012      0.00000     0.76743    0.00245     0.76988
      C   88   -0.63375      1.99944     4.62221    0.01210     6.63375
      H   89    0.21757      0.00000     0.78155    0.00088     0.78243
      H   90    0.23288      0.00000     0.76585    0.00127     0.76712
      H   91    0.21938      0.00000     0.77930    0.00132     0.78062
      C   92   -0.64358      1.99943     4.63204    0.01211     6.64358
      H   93    0.22285      0.00000     0.77615    0.00100     0.77715
      H   94    0.21942      0.00000     0.77915    0.00143     0.78058
      H   95    0.23474      0.00000     0.76400    0.00126     0.76526
      O   96   -0.49859      1.99977     6.47221    0.02660     8.49859
      C   97   -0.26434      1.99931     4.25220    0.01284     6.26434
      H   98    0.17225      0.00000     0.82552    0.00222     0.82775
      H   99    0.17167      0.00000     0.82615    0.00218     0.82833
      H  100    0.19419      0.00000     0.80437    0.00144     0.80581
      C  101   -0.65004      1.99943     4.63755    0.01307     6.65004
      H  102    0.23973      0.00000     0.75903    0.00124     0.76027
      H  103    0.22235      0.00000     0.77623    0.00141     0.77765
      H  104    0.22922      0.00000     0.76986    0.00092     0.77078
      C  105   -0.64994      1.99943     4.63706    0.01346     6.64994
      H  106    0.24125      0.00000     0.75754    0.00121     0.75875
      H  107    0.22293      0.00000     0.77573    0.00133     0.77707
      H  108    0.22642      0.00000     0.77265    0.00093     0.77358
      O  109   -0.49908      1.99977     6.47264    0.02668     8.49908
      C  110   -0.26288      1.99930     4.25117    0.01242     6.26288
      H  111    0.19743      0.00000     0.80120    0.00137     0.80257
      H  112    0.17310      0.00000     0.82482    0.00208     0.82690
      H  113    0.17229      0.00000     0.82568    0.00203     0.82771
 =======================================================================
   * Total *   -0.00000    169.93583   364.52836    1.53581   536.00000

 Normal termination of Gaussian 16 at Fri Mar  4 03:31:26 2022.
