 Gaussian 09, Revision E.01,

 ----------------------------------------------------------------------
 # PBE1PBE gen pseudo=read int=(grid=ultrafine) empiricaldispersion=GD3
 BJ nmr=giao
 ----------------------------------------------------------------------

 ------------------
 W001_1_6_F_3 title
 ------------------
 Symbolic Z-matrix:
 Charge =  0 Multiplicity = 1

 SCF Done:  E(RPBE1PBE) =  -4822.93882944     A.U. after   29 cycles

      1  C    Isotropic =   107.9759   Anisotropy =    97.2264

      2  C    Isotropic =   111.8085   Anisotropy =    90.8390

      3  C    Isotropic =   112.6839   Anisotropy =    87.7944

      4  C    Isotropic =   112.3568   Anisotropy =    89.2647

      5  C    Isotropic =   111.0579   Anisotropy =    92.4031

      6  H    Isotropic =    27.3709   Anisotropy =     6.1221

      7  H    Isotropic =    27.5959   Anisotropy =     7.1775

      8  H    Isotropic =    27.2806   Anisotropy =     4.8904

      9  H    Isotropic =    27.0595   Anisotropy =     5.5701

     10  H    Isotropic =    27.6181   Anisotropy =     3.1680

     11  Fe   Isotropic = -6218.4910   Anisotropy =  8317.0105

     12  C    Isotropic =   113.6734   Anisotropy =    92.5215

     13  C    Isotropic =   102.8988   Anisotropy =    90.7712

     14  C    Isotropic =    91.1357   Anisotropy =    95.9009

     15  C    Isotropic =    93.0355   Anisotropy =    84.7546

     16  C    Isotropic =   110.4105   Anisotropy =    87.7116

     17  H    Isotropic =    28.0150   Anisotropy =     7.1094

     18  H    Isotropic =    26.9895   Anisotropy =     3.6512

     19  C    Isotropic =   149.5878   Anisotropy =    22.7438

     20  P    Isotropic =   220.0170   Anisotropy =   177.0630

     21  H    Isotropic =    26.7218   Anisotropy =     6.2074

     22  C    Isotropic =   169.0923   Anisotropy =    13.5605

     23  H    Isotropic =    30.0822   Anisotropy =     9.8359

     24  H    Isotropic =    29.3950   Anisotropy =     9.0897

     25  H    Isotropic =    28.4393   Anisotropy =     7.6329

     26  C    Isotropic =    54.0218   Anisotropy =   190.7742

     27  C    Isotropic =    46.1121   Anisotropy =   162.3275

     28  C    Isotropic =    36.7558   Anisotropy =   203.7261

     29  C    Isotropic =    40.0309   Anisotropy =   185.4327

     30  C    Isotropic =    44.1501   Anisotropy =   195.1908

     31  C    Isotropic =    48.2667   Anisotropy =   159.2553

     32  H    Isotropic =    23.2956   Anisotropy =     9.6568

     33  C    Isotropic =    49.1263   Anisotropy =    15.0249

     34  H    Isotropic =    21.4166   Anisotropy =    17.1611

     35  H    Isotropic =    23.9870   Anisotropy =    16.1465

     36  C    Isotropic =    48.8360   Anisotropy =    14.7687

     37  C    Isotropic =    54.6411   Anisotropy =   192.3618

     38  C    Isotropic =    47.2809   Anisotropy =   167.9476

     39  C    Isotropic =    52.3192   Anisotropy =   201.3332

     40  C    Isotropic =    34.4235   Anisotropy =   206.2317

     41  C    Isotropic =    45.4253   Anisotropy =   196.1497

     42  C    Isotropic =    47.0504   Anisotropy =   164.4704

     43  H    Isotropic =    23.5497   Anisotropy =     9.2090

     44  C    Isotropic =    48.5565   Anisotropy =    13.3982

     45  H    Isotropic =    23.5344   Anisotropy =     9.6030

     46  H    Isotropic =    23.0642   Anisotropy =    13.8318

     47  C    Isotropic =    48.8031   Anisotropy =    13.3339

     48  F    Isotropic =   245.9658   Anisotropy =   138.3592

     49  F    Isotropic =   246.5958   Anisotropy =   133.7834

     50  F    Isotropic =   217.1714   Anisotropy =   151.2119

     51  F    Isotropic =   228.1755   Anisotropy =   144.9414

     52  F    Isotropic =   250.8027   Anisotropy =   115.3858

     53  F    Isotropic =   220.5349   Anisotropy =   152.6150

     54  F    Isotropic =   243.1073   Anisotropy =   138.2608

     55  F    Isotropic =   248.4804   Anisotropy =   140.5900

     56  F    Isotropic =   222.4945   Anisotropy =   144.7567

     57  F    Isotropic =   246.5055   Anisotropy =   139.0299

     58  F    Isotropic =   219.9736   Anisotropy =   148.3217

     59  F    Isotropic =   246.3040   Anisotropy =   138.9294

     60  P    Isotropic =   238.1827   Anisotropy =   110.0325

     61  C    Isotropic =    48.9084   Anisotropy =   193.2116

     62  C    Isotropic =    54.2532   Anisotropy =   183.2395

     63  C    Isotropic =    44.1869   Anisotropy =   197.5814

     64  C    Isotropic =    46.1945   Anisotropy =   181.2502

     65  C    Isotropic =    31.7920   Anisotropy =   215.5127

     66  C    Isotropic =    51.7615   Anisotropy =   188.8613

     67  H    Isotropic =    23.7839   Anisotropy =     2.8978

     68  H    Isotropic =    24.2093   Anisotropy =     6.9449

     69  H    Isotropic =    24.8448   Anisotropy =    13.5392

     70  H    Isotropic =    22.2983   Anisotropy =    11.1362

     71  H    Isotropic =    23.8095   Anisotropy =     6.8766

     72  Cl   Isotropic =   816.5603   Anisotropy =   459.3061

     73  Cl   Isotropic =   916.6958   Anisotropy =   582.2706

     74  H    Isotropic =    29.2092   Anisotropy =     5.6875

     75  C    Isotropic =    51.9510   Anisotropy =   193.0955

     76  C    Isotropic =    48.0726   Anisotropy =   195.9746

     77  C    Isotropic =    41.9360   Anisotropy =   171.6212

     78  C    Isotropic =    36.7534   Anisotropy =   200.1321

     79  C    Isotropic =    35.1385   Anisotropy =   191.3347

     80  C    Isotropic =    47.4774   Anisotropy =   199.4247

     81  H    Isotropic =    24.4228   Anisotropy =     3.9422

     82  H    Isotropic =    23.6348   Anisotropy =     3.0388

     83  H    Isotropic =    22.7120   Anisotropy =     7.6293

     84  H    Isotropic =    24.1978   Anisotropy =     9.2902

     85  C    Isotropic =    48.8917   Anisotropy =   191.5813

     86  C    Isotropic =    52.5222   Anisotropy =   187.2897

     87  C    Isotropic =    46.3307   Anisotropy =   189.8255

     88  C    Isotropic =    47.7951   Anisotropy =   172.8846

     89  C    Isotropic =    43.0577   Anisotropy =   197.4440

     90  C    Isotropic =    50.9886   Anisotropy =   186.2718

     91  H    Isotropic =    23.7403   Anisotropy =     4.4598

     92  H    Isotropic =    23.5616   Anisotropy =     9.1468

     93  H    Isotropic =    23.7057   Anisotropy =    10.4448

     94  H    Isotropic =    24.3716   Anisotropy =    14.7113

     95  H    Isotropic =    23.9503   Anisotropy =     7.1408

     96  Pd   Isotropic =  -151.4697   Anisotropy =   255.5622

 Normal termination of Gaussian 09 at Mon Dec  6 18:27:26 2021.
 Gaussian 09:  ES64L-G09RevE.01 30-Nov-2015

 ----------------------------------------------------------------------
 # PBE1PBE gen pseudo=read int=(grid=ultrafine) empiricaldispersion=GD3
 BJ pop=nbo guess=read geom=check
 ----------------------------------------------------------------------

 ------------------
 W001_1_6_F_3 title
 ------------------
 Structure from the checkpoint file:  "W001_1_6_F_3_SPE.chk"
 Charge =  0 Multiplicity = 1

                         Standard orientation:
 ---------------------------------------------------------------------
 Center     Atomic      Atomic             Coordinates (Angstroms)
 Number     Number       Type             X           Y           Z
 ---------------------------------------------------------------------
      1          6           0        1.876088    4.915542   -1.137928
      2          6           0        2.950710    4.964097   -2.090057
      3          6           0        4.180217    4.729033   -1.384121
      4          6           0        3.865561    4.532319    0.004225
      5          6           0        2.438671    4.651860    0.155832
      6          1           0        2.846633    5.101898   -3.166879
      7          1           0        5.172030    4.657948   -1.831785
      8          1           0        4.582012    4.304392    0.794361
      9          1           0        1.874133    4.546862    1.083768
     10          1           0        0.814721    5.029533   -1.362321
     11         26           0        2.911315    3.141183   -1.157389
     12          6           0        3.691305    1.653467   -2.326981
     13          6           0        3.842336    1.344001   -0.940300
     14          6           0        2.535008    1.301705   -0.328823
     15          6           0        1.561460    1.642431   -1.363291
     16          6           0        2.296458    1.825170   -2.592480
     17          1           0        4.499577    1.781747   -3.047118
     18          1           0        1.864266    2.102165   -3.552495
     19          6           0        0.067906    1.867555   -1.226566
     20         15           0       -0.754804    0.246138   -0.744611
     21          1           0       -0.112133    2.586593   -0.408337
     22          6           0       -0.561098    2.419701   -2.518567
     23          1           0       -1.611288    2.706392   -2.360504
     24          1           0       -0.003597    3.316551   -2.835370
     25          1           0       -0.529878    1.668107   -3.324342
     26          6           0       -5.329314    0.530879   -1.583545
     27          6           0       -4.615119   -0.605418   -1.979649
     28          6           0       -3.229419   -0.691233   -1.773269
     29          6           0       -2.552164    0.371376   -1.156468
     30          6           0       -3.271421    1.502991   -0.731094
     31          6           0       -4.650700    1.585876   -0.957477
     32          1           0       -6.406894    0.592349   -1.753470
     33          6           0       -5.324365   -1.733225   -2.694385
     34          1           0       -2.675246   -1.571119   -2.108516
     35          1           0       -2.767927    2.325698   -0.213703
     36          6           0       -5.418285    2.781066   -0.447750
     37          6           0       -1.592070    0.263400    3.852544
     38          6           0       -0.974888    1.378365    3.271927
     39          6           0       -0.684155    1.401743    1.901966
     40          6           0       -1.001604    0.301105    1.092347
     41          6           0       -1.640178   -0.810426    1.670906
     42          6           0       -1.925849   -0.829573    3.042661
     43          1           0       -1.814511    0.246341    4.922647
     44          6           0       -0.653654    2.570027    4.141741
     45          1           0       -0.185850    2.280540    1.491390
     46          1           0       -1.927716   -1.662793    1.046243
     47          6           0       -2.528820   -2.066984    3.662725
     48          9           0       -3.265037   -1.773363    4.764092
     49          9           0       -3.320815   -2.736707    2.788855
     50          9           0       -1.546125   -2.936021    4.059976
     51          9           0        0.009215    2.191799    5.271176
     52          9           0        0.123839    3.484904    3.496942
     53          9           0       -1.785025    3.208532    4.541555
     54          9           0       -4.786611   -2.937883   -2.372968
     55          9           0       -6.648422   -1.769568   -2.374855
     56          9           0       -5.237425   -1.592761   -4.042358
     57          9           0       -6.516153    3.035121   -1.206150
     58          9           0       -5.846529    2.584948    0.830455
     59          9           0       -4.646169    3.903760   -0.441698
     60         15           0        1.929128   -1.790531    0.066601
     61          6           0        6.346559   -1.632697   -1.374082
     62          6           0        6.039616   -1.676656   -0.004717
     63          6           0        4.704270   -1.734553    0.412083
     64          6           0        3.666307   -1.758589   -0.543507
     65          6           0        3.975618   -1.717322   -1.913633
     66          6           0        5.315046   -1.654078   -2.322472
     67          1           0        7.391146   -1.584074   -1.698821
     68          1           0        6.840816   -1.664791    0.741472
     69          1           0        4.467555   -1.753844    1.481033
     70          1           0        3.170322   -1.742670   -2.651511
     71          1           0        5.548123   -1.620930   -3.391480
     72         17           0        1.300271   -3.541028   -2.474483
     73         17           0       -0.692549   -1.046005   -3.699039
     74          1           0        4.775878    1.141841   -0.415501
     75          6           0        2.138509    0.042581    3.786416
     76          6           0        2.499542    1.356425    3.474010
     77          6           0        2.601293    1.743501    2.132766
     78          6           0        2.348909    0.847960    1.077291
     79          6           0        2.037836   -0.506997    1.403500
     80          6           0        1.925340   -0.882566    2.755840
     81          1           0        2.033480   -0.273179    4.829097
     82          1           0        2.679111    2.086446    4.268598
     83          1           0        2.879620    2.766115    1.873131
     84          1           0        1.686343   -1.917633    3.011660
     85          6           0        1.345247   -5.910558    2.126725
     86          6           0        0.400755   -4.889523    2.307750
     87          6           0        0.593487   -3.645938    1.696960
     88          6           0        1.744497   -3.400075    0.923176
     89          6           0        2.686411   -4.428907    0.738903
     90          6           0        2.481543   -5.678065    1.339968
     91          1           0        1.191431   -6.888765    2.593271
     92          1           0       -0.491478   -5.052804    2.919450
     93          1           0       -0.149857   -2.858256    1.837160
     94          1           0        3.566944   -4.258593    0.114743
     95          1           0        3.214205   -6.476265    1.183692
     96         46           0        0.389231   -1.522407   -1.612591
 ---------------------------------------------------------------------

 SCF Done:  E(RPBE1PBE) =  -4822.93882947     A.U. after    3 cycles

 The electronic state is 1-A.
 Alpha  occ. eigenvalues -- -101.62959-101.62633 -77.28666 -77.27915 -24.83190
 Alpha  occ. eigenvalues --  -24.82820 -24.82789 -24.82775 -24.82584 -24.82410
 Alpha  occ. eigenvalues --  -24.81986 -24.81894 -24.81531 -24.80907 -24.80703
 Alpha  occ. eigenvalues --  -24.80391 -10.50642 -10.50468 -10.49568 -10.48532
 Alpha  occ. eigenvalues --  -10.30123 -10.30101 -10.29738 -10.29433 -10.29295
 Alpha  occ. eigenvalues --  -10.29282 -10.29011 -10.28819 -10.28733 -10.28636
 Alpha  occ. eigenvalues --  -10.28569 -10.28312 -10.27996 -10.27787 -10.27677
 Alpha  occ. eigenvalues --  -10.27461 -10.26976 -10.26381 -10.26369 -10.26222
 Alpha  occ. eigenvalues --  -10.26000 -10.25938 -10.25724 -10.25705 -10.25627
 Alpha  occ. eigenvalues --  -10.25558 -10.25544 -10.25517 -10.25468 -10.25426
 Alpha  occ. eigenvalues --  -10.25368 -10.25272 -10.25272 -10.25201 -10.25018
 Alpha  occ. eigenvalues --  -10.24932 -10.24769 -10.24680 -10.24618 -10.24571
 Alpha  occ. eigenvalues --  -10.24508 -10.23825  -9.45472  -9.45141  -7.18650
 Alpha  occ. eigenvalues --   -7.18351  -7.18203  -7.18157  -7.17853  -7.17814
 Alpha  occ. eigenvalues --   -6.67891  -6.67060  -4.81509  -4.81427  -4.81211
 Alpha  occ. eigenvalues --   -4.80657  -4.80615  -4.80427  -3.62034  -3.53503
 Alpha  occ. eigenvalues --   -2.26631  -2.22322  -2.22264  -2.21344  -2.21064
 Alpha  occ. eigenvalues --   -2.17734  -1.36449  -1.36287  -1.35424  -1.34339
 Alpha  occ. eigenvalues --   -1.28181  -1.28092  -1.27770  -1.27520  -1.27152
 Alpha  occ. eigenvalues --   -1.26747  -1.26020  -1.25677  -0.95022  -0.94186
 Alpha  occ. eigenvalues --   -0.93677  -0.92133  -0.90961  -0.89932  -0.89397
 Alpha  occ. eigenvalues --   -0.86438  -0.86390  -0.85041  -0.83612  -0.82719
 Alpha  occ. eigenvalues --   -0.82426  -0.81523  -0.79140  -0.78552  -0.78433
 Alpha  occ. eigenvalues --   -0.78092  -0.76445  -0.75854  -0.75743  -0.75150
 Alpha  occ. eigenvalues --   -0.75133  -0.75099  -0.74908  -0.74587  -0.74424
 Alpha  occ. eigenvalues --   -0.74003  -0.72433  -0.69955  -0.68868  -0.68148
 Alpha  occ. eigenvalues --   -0.67429  -0.67167  -0.65710  -0.64861  -0.64475
 Alpha  occ. eigenvalues --   -0.64164  -0.63804  -0.63745  -0.63461  -0.63361
 Alpha  occ. eigenvalues --   -0.63210  -0.63123  -0.62534  -0.62362  -0.62122
 Alpha  occ. eigenvalues --   -0.61265  -0.61072  -0.60142  -0.58562  -0.58483
 Alpha  occ. eigenvalues --   -0.57969  -0.57787  -0.57538  -0.57301  -0.56480
 Alpha  occ. eigenvalues --   -0.56419  -0.56164  -0.54966  -0.54878  -0.54517
 Alpha  occ. eigenvalues --   -0.53881  -0.53227  -0.52254  -0.52198  -0.51352
 Alpha  occ. eigenvalues --   -0.51126  -0.51066  -0.50886  -0.50500  -0.50223
 Alpha  occ. eigenvalues --   -0.49952  -0.49904  -0.49148  -0.48857  -0.48755
 Alpha  occ. eigenvalues --   -0.48615  -0.48413  -0.48093  -0.47988  -0.47764
 Alpha  occ. eigenvalues --   -0.47629  -0.47367  -0.47268  -0.47094  -0.46875
 Alpha  occ. eigenvalues --   -0.46323  -0.46223  -0.45850  -0.45648  -0.45573
 Alpha  occ. eigenvalues --   -0.45545  -0.45478  -0.45378  -0.45272  -0.45046
 Alpha  occ. eigenvalues --   -0.44895  -0.44725  -0.44613  -0.44382  -0.44258
 Alpha  occ. eigenvalues --   -0.44141  -0.44077  -0.44015  -0.43714  -0.43670
 Alpha  occ. eigenvalues --   -0.43349  -0.43281  -0.43064  -0.42333  -0.42106
 Alpha  occ. eigenvalues --   -0.41852  -0.41256  -0.40944  -0.40940  -0.40675
 Alpha  occ. eigenvalues --   -0.40388  -0.40281  -0.39885  -0.39787  -0.39391
 Alpha  occ. eigenvalues --   -0.39148  -0.38713  -0.38481  -0.38147  -0.38051
 Alpha  occ. eigenvalues --   -0.37448  -0.37331  -0.37051  -0.36761  -0.36052
 Alpha  occ. eigenvalues --   -0.34750  -0.33860  -0.33133  -0.32659  -0.32544
 Alpha  occ. eigenvalues --   -0.31800  -0.31211  -0.30849  -0.30385  -0.30106
 Alpha  occ. eigenvalues --   -0.29860  -0.29440  -0.29188  -0.28828  -0.28405
 Alpha  occ. eigenvalues --   -0.28168  -0.28084  -0.27709  -0.27417  -0.27125
 Alpha  occ. eigenvalues --   -0.26814  -0.25979  -0.25517  -0.24892  -0.24706
 Alpha  occ. eigenvalues --   -0.24066  -0.24018
 Alpha virt. eigenvalues --   -0.09667  -0.08338  -0.07822  -0.06829  -0.06012
 Alpha virt. eigenvalues --   -0.05345  -0.04879  -0.04422  -0.03103  -0.02662
 Alpha virt. eigenvalues --   -0.02373  -0.01748  -0.01682  -0.01405  -0.00304

 Mulliken charges:
               1
     1  C   -0.070047
     2  C   -0.019644
     3  C    0.036018
     4  C   -0.080790
     5  C   -0.186750
     6  H    0.125257
     7  H    0.124229
     8  H    0.130484
     9  H    0.138053
    10  H    0.126649
    11  Fe  -0.599522
    12  C   -0.143365
    13  C    0.010364
    14  C    0.383162
    15  C    0.319792
    16  C   -0.120864
    17  H    0.115276
    18  H    0.146216
    19  C   -0.177847
    20  P    0.106184
    21  H    0.125748
    22  C   -0.457355
    23  H    0.150904
    24  H    0.148166
    25  H    0.185756
    26  C   -0.269080
    27  C    0.120933
    28  C   -0.301596
    29  C    0.148675
    30  C   -0.369557
    31  C    0.155063
    32  H    0.169067
    33  C    0.434637
    34  H    0.219716
    35  H    0.166947
    36  C    0.432621
    37  C   -0.305757
    38  C    0.085234
    39  C   -0.231189
    40  C    0.239439
    41  C   -0.377146
    42  C    0.139175
    43  H    0.158999
    44  C    0.451493
    45  H    0.183790
    46  H    0.210917
    47  C    0.459804
    48  F   -0.155741
    49  F   -0.158034
    50  F   -0.162822
    51  F   -0.168130
    52  F   -0.167531
    53  F   -0.151991
    54  F   -0.156624
    55  F   -0.166125
    56  F   -0.149148
    57  F   -0.158814
    58  F   -0.156437
    59  F   -0.166609
    60  P    0.242754
    61  C   -0.083614
    62  C   -0.155432
    63  C   -0.167824
    64  C    0.006928
    65  C   -0.036872
    66  C   -0.175230
    67  H    0.124372
    68  H    0.124322
    69  H    0.137430
    70  H    0.193128
    71  H    0.127951
    72  Cl  -0.397412
    73  Cl  -0.415269
    74  H    0.140051
    75  C   -0.200448
    76  C   -0.084993
    77  C   -0.255246
    78  C   -0.117800
    79  C   -0.211820
    80  C   -0.093429
    81  H    0.124547
    82  H    0.127414
    83  H    0.096586
    84  H    0.168222
    85  C   -0.077120
    86  C   -0.175766
    87  C   -0.172470
    88  C    0.130596
    89  C   -0.113843
    90  C   -0.148855
    91  H    0.125368
    92  H    0.128846
    93  H    0.081075
    94  H    0.157293
    95  H    0.124806
    96  Pd   0.201500
 Sum of Mulliken charges =  -0.00000

 Dipole moment (field-independent basis, Debye):
    X=              6.7730    Y=              4.5737    Z=              6.3655  Tot=             10.3591
 Quadrupole moment (field-independent basis, Debye-Ang):
   XX=           -394.6216   YY=           -423.7039   ZZ=           -427.9179
   XY=             -0.5715   XZ=             -5.5082   YZ=            -33.0949

 Summary of Natural Population Analysis:

                                       Natural Population
                Natural  -----------------------------------------------
    Atom  No    Charge         Core      Valence    Rydberg      Total
 -----------------------------------------------------------------------
      C    1   -0.20895      1.99876     4.18467    0.02552     6.20895
      C    2   -0.20228      1.99877     4.17900    0.02451     6.20228
      C    3   -0.20260      1.99876     4.17850    0.02534     6.20260
      C    4   -0.21331      1.99875     4.18967    0.02490     6.21331
      C    5   -0.21643      1.99876     4.19332    0.02436     6.21643
      H    6    0.24950      0.00000     0.74920    0.00131     0.75050
      H    7    0.24936      0.00000     0.74932    0.00132     0.75064
      H    8    0.24820      0.00000     0.75048    0.00132     0.75180
      H    9    0.24537      0.00000     0.75331    0.00131     0.75463
      H   10    0.24268      0.00000     0.75584    0.00149     0.75732
     Fe   11   -0.30838     17.99251     8.27830    0.03757    26.30838
      C   12   -0.19642      1.99877     4.17447    0.02319     6.19642
      C   13   -0.17914      1.99868     4.15458    0.02588     6.17914
      C   14   -0.06353      1.99859     4.03016    0.03478     6.06353
      C   15   -0.01479      1.99857     3.97978    0.03645     6.01479
      C   16   -0.18845      1.99869     4.16730    0.02246     6.18845
      H   17    0.25020      0.00000     0.74824    0.00156     0.74980
      H   18    0.25689      0.00000     0.74138    0.00172     0.74311
      C   19   -0.50875      1.99926     4.48022    0.02928     6.50875
      P   20    1.18354      9.99573     3.77013    0.05060    13.81646
      H   21    0.23664      0.00000     0.76083    0.00253     0.76336
      C   22   -0.63226      1.99944     4.61936    0.01347     6.63226
      H   23    0.22474      0.00000     0.77427    0.00098     0.77526
      H   24    0.22608      0.00000     0.77279    0.00114     0.77392
      H   25    0.25830      0.00000     0.74058    0.00111     0.74170
      C   26   -0.13747      1.99907     4.12221    0.01619     6.13747
      C   27   -0.14400      1.99898     4.12034    0.02468     6.14400
      C   28   -0.13077      1.99903     4.11339    0.01834     6.13077
      C   29   -0.33698      1.99901     4.30368    0.03429     6.33698
      C   30   -0.16630      1.99902     4.14713    0.02015     6.16630
      C   31   -0.15393      1.99897     4.12986    0.02509     6.15393
      H   32    0.25617      0.00000     0.74250    0.00132     0.74383
      C   33    0.95002      1.99914     3.00300    0.04784     5.04998
      H   34    0.27795      0.00000     0.72058    0.00147     0.72205
      H   35    0.23612      0.00000     0.76191    0.00197     0.76388
      C   36    0.95098      1.99913     3.00253    0.04736     5.04902
      C   37   -0.14286      1.99906     4.12792    0.01589     6.14286
      C   38   -0.13904      1.99895     4.11456    0.02553     6.13904
      C   39   -0.16490      1.99900     4.14580    0.02010     6.16490
      C   40   -0.32821      1.99902     4.29285    0.03634     6.32821
      C   41   -0.17290      1.99901     4.15470    0.01919     6.17290
      C   42   -0.14499      1.99896     4.12087    0.02517     6.14499
      H   43    0.25447      0.00000     0.74420    0.00132     0.74553
      C   44    0.95235      1.99910     3.00174    0.04681     5.04765
      H   45    0.24246      0.00000     0.75538    0.00216     0.75754
      H   46    0.25378      0.00000     0.74443    0.00179     0.74622
      C   47    0.95076      1.99912     3.00306    0.04707     5.04924
      F   48   -0.30587      1.99992     7.29749    0.00846     9.30587
      F   49   -0.30450      1.99992     7.29625    0.00833     9.30450
      F   50   -0.31859      1.99993     7.31004    0.00863     9.31859
      F   51   -0.31288      1.99992     7.30489    0.00807     9.31288
      F   52   -0.31458      1.99992     7.30669    0.00797     9.31458
      F   53   -0.30529      1.99992     7.29746    0.00791     9.30529
      F   54   -0.30540      1.99992     7.29682    0.00866     9.30540
      F   55   -0.31411      1.99993     7.30572    0.00847     9.31411
      F   56   -0.30294      1.99992     7.29451    0.00850     9.30294
      F   57   -0.30774      1.99992     7.29931    0.00851     9.30774
      F   58   -0.30991      1.99992     7.30167    0.00831     9.30991
      F   59   -0.31442      1.99993     7.30625    0.00825     9.31442
      P   60    1.20114      9.99557     3.74822    0.05507    13.79886
      C   61   -0.19688      1.99922     4.17989    0.01778     6.19688
      C   62   -0.22519      1.99921     4.20764    0.01835     6.22519
      C   63   -0.20901      1.99908     4.18955    0.02038     6.20901
      C   64   -0.35658      1.99900     4.32105    0.03653     6.35658
      C   65   -0.16573      1.99908     4.14700    0.01964     6.16573
      C   66   -0.21286      1.99921     4.19613    0.01752     6.21286
      H   67    0.22192      0.00000     0.77694    0.00114     0.77808
      H   68    0.22360      0.00000     0.77514    0.00127     0.77640
      H   69    0.22878      0.00000     0.76914    0.00208     0.77122
      H   70    0.26100      0.00000     0.73682    0.00217     0.73900
      H   71    0.22644      0.00000     0.77236    0.00120     0.77356
     Cl   72   -0.39625      9.99964     7.38771    0.00890    17.39625
     Cl   73   -0.43060      9.99966     7.42211    0.00883    17.43060
      H   74    0.25844      0.00000     0.73938    0.00218     0.74156
      C   75   -0.20761      1.99920     4.19031    0.01811     6.20761
      C   76   -0.19764      1.99920     4.18038    0.01805     6.19764
      C   77   -0.20371      1.99908     4.18677    0.01786     6.20371
      C   78   -0.02704      1.99892     4.00302    0.02510     6.02704
      C   79   -0.32699      1.99893     4.29195    0.03610     6.32699
      C   80   -0.21447      1.99908     4.19519    0.02020     6.21447
      H   81    0.22913      0.00000     0.76967    0.00120     0.77087
      H   82    0.23071      0.00000     0.76806    0.00123     0.76929
      H   83    0.23036      0.00000     0.76740    0.00224     0.76964
      H   84    0.24079      0.00000     0.75689    0.00232     0.75921
      C   85   -0.19358      1.99922     4.17659    0.01777     6.19358
      C   86   -0.20763      1.99920     4.19103    0.01741     6.20763
      C   87   -0.20850      1.99910     4.19077    0.01862     6.20850
      C   88   -0.35798      1.99899     4.32430    0.03469     6.35798
      C   89   -0.17715      1.99911     4.15894    0.01911     6.17715
      C   90   -0.20349      1.99921     4.18678    0.01750     6.20349
      H   91    0.22258      0.00000     0.77627    0.00115     0.77742
      H   92    0.22959      0.00000     0.76914    0.00127     0.77041
      H   93    0.21930      0.00000     0.77921    0.00149     0.78070
      H   94    0.23868      0.00000     0.75970    0.00162     0.76132
      H   95    0.22418      0.00000     0.77460    0.00121     0.77582
     Pd   96   -0.15043     35.98781    10.13292    0.02970    46.15043
 =======================================================================
   * Total *   -0.00000    209.92439   340.56438    1.51123   552.00000

 Normal termination of Gaussian 09 at Mon Dec  6 18:56:34 2021.
