 Gaussian 09, Revision E.01,

 ----------------------------------------------------------------------
 # PBE1PBE gen pseudo=read int=(grid=ultrafine) empiricaldispersion=GD3
 BJ nmr=giao
 ----------------------------------------------------------------------

 ------------------
 W001_1_6_F_2 title
 ------------------
 Symbolic Z-matrix:
 Charge =  0 Multiplicity = 1

 SCF Done:  E(RPBE1PBE) =  -3774.74870048     A.U. after   26 cycles

      1  C    Isotropic =   108.0256   Anisotropy =    96.5727

      2  C    Isotropic =   112.0765   Anisotropy =    89.4078

      3  C    Isotropic =   113.1509   Anisotropy =    86.8184

      4  C    Isotropic =   112.3588   Anisotropy =    89.0691

      5  C    Isotropic =   110.0956   Anisotropy =    93.0253

      6  H    Isotropic =    27.4304   Anisotropy =     6.1395

      7  H    Isotropic =    27.6428   Anisotropy =     7.0461

      8  H    Isotropic =    27.2843   Anisotropy =     4.6159

      9  H    Isotropic =    26.9444   Anisotropy =     6.0292

     10  H    Isotropic =    27.6342   Anisotropy =     3.4560

     11  Fe   Isotropic = -6218.3329   Anisotropy =  8341.0325

     12  C    Isotropic =   113.8930   Anisotropy =    90.5435

     13  C    Isotropic =   103.5766   Anisotropy =    89.2180

     14  C    Isotropic =    89.8997   Anisotropy =    96.4193

     15  C    Isotropic =    93.7647   Anisotropy =    78.4707

     16  C    Isotropic =   113.8529   Anisotropy =    82.9759

     17  H    Isotropic =    28.1899   Anisotropy =     6.6534

     18  H    Isotropic =    27.4132   Anisotropy =     3.4200

     19  C    Isotropic =   154.9647   Anisotropy =    22.0040

     20  P    Isotropic =   298.4926   Anisotropy =    85.3261

     21  H    Isotropic =    27.0222   Anisotropy =     4.0408

     22  C    Isotropic =   168.4786   Anisotropy =    10.1810

     23  H    Isotropic =    30.0845   Anisotropy =    10.3198

     24  H    Isotropic =    29.2033   Anisotropy =     8.0371

     25  H    Isotropic =    30.1881   Anisotropy =     7.5634

     26  C    Isotropic =    55.4326   Anisotropy =   189.9807

     27  C    Isotropic =    45.8517   Anisotropy =   162.7017

     28  C    Isotropic =    43.8856   Anisotropy =   183.6133

     29  C    Isotropic =    34.0078   Anisotropy =   213.9936

     30  C    Isotropic =    38.3985   Anisotropy =   198.0794

     31  C    Isotropic =    46.7465   Anisotropy =   162.1946

     32  H    Isotropic =    23.3274   Anisotropy =    10.0049

     33  C    Isotropic =    48.9125   Anisotropy =    14.0095

     34  H    Isotropic =    22.8594   Anisotropy =    12.7262

     35  H    Isotropic =    23.5855   Anisotropy =    16.1949

     36  C    Isotropic =    48.8034   Anisotropy =    15.1480

     37  C    Isotropic =    57.5532   Anisotropy =   187.5147

     38  C    Isotropic =    46.2695   Anisotropy =   168.7325

     39  C    Isotropic =    52.3666   Anisotropy =   203.3013

     40  C    Isotropic =    30.7318   Anisotropy =   220.7696

     41  C    Isotropic =    47.6585   Anisotropy =   189.4983

     42  C    Isotropic =    47.9587   Anisotropy =   162.6526

     43  H    Isotropic =    23.7584   Anisotropy =     9.3208

     44  C    Isotropic =    48.2887   Anisotropy =    13.5287

     45  H    Isotropic =    23.4596   Anisotropy =     8.9139

     46  H    Isotropic =    23.7219   Anisotropy =    11.8454

     47  C    Isotropic =    48.5656   Anisotropy =    11.9734

     48  F    Isotropic =   217.9138   Anisotropy =   152.5286

     49  F    Isotropic =   247.0463   Anisotropy =   137.4195

     50  F    Isotropic =   248.1154   Anisotropy =   132.9165

     51  F    Isotropic =   229.8089   Anisotropy =   145.6087

     52  F    Isotropic =   251.4574   Anisotropy =   116.8293

     53  F    Isotropic =   222.7897   Anisotropy =   150.9280

     54  F    Isotropic =   244.0393   Anisotropy =   137.5718

     55  F    Isotropic =   247.8456   Anisotropy =   139.8496

     56  F    Isotropic =   223.0633   Anisotropy =   143.4323

     57  F    Isotropic =   219.5201   Anisotropy =   147.8710

     58  F    Isotropic =   245.8932   Anisotropy =   138.9311

     59  F    Isotropic =   247.6562   Anisotropy =   138.6506

     60  P    Isotropic =   288.4167   Anisotropy =    37.9131

     61  C    Isotropic =    50.7091   Anisotropy =   190.8907

     62  C    Isotropic =    52.3874   Anisotropy =   187.4900

     63  C    Isotropic =    40.0068   Anisotropy =   196.1339

     64  C    Isotropic =    39.7811   Anisotropy =   207.7063

     65  C    Isotropic =    37.9452   Anisotropy =   199.8768

     66  C    Isotropic =    51.2211   Anisotropy =   186.9219

     67  H    Isotropic =    23.8753   Anisotropy =     2.8124

     68  H    Isotropic =    23.9871   Anisotropy =     5.5398

     69  H    Isotropic =    23.9103   Anisotropy =     7.3307

     70  H    Isotropic =    24.4638   Anisotropy =    13.4456

     71  H    Isotropic =    24.1471   Anisotropy =     6.8852

     72  H    Isotropic =    29.3565   Anisotropy =     6.0629

     73  C    Isotropic =    51.0603   Anisotropy =   193.4462

     74  C    Isotropic =    51.0922   Anisotropy =   190.5567

     75  C    Isotropic =    43.0027   Anisotropy =   170.3531

     76  C    Isotropic =    40.5541   Anisotropy =   193.3259

     77  C    Isotropic =    29.8802   Anisotropy =   211.0571

     78  C    Isotropic =    51.0693   Anisotropy =   200.5534

     79  H    Isotropic =    24.4865   Anisotropy =     3.7046

     80  H    Isotropic =    23.8339   Anisotropy =     2.9529

     81  H    Isotropic =    22.8874   Anisotropy =     7.5653

     82  H    Isotropic =    24.1667   Anisotropy =     8.5263

     83  C    Isotropic =    53.4527   Anisotropy =   183.9346

     84  C    Isotropic =    52.1638   Anisotropy =   187.3992

     85  C    Isotropic =    46.9639   Anisotropy =   188.1074

     86  C    Isotropic =    41.5121   Anisotropy =   192.2591

     87  C    Isotropic =    48.5251   Anisotropy =   187.5533

     88  C    Isotropic =    50.8653   Anisotropy =   185.3924

     89  H    Isotropic =    23.9850   Anisotropy =     4.5657

     90  H    Isotropic =    23.5869   Anisotropy =     9.2086

     91  H    Isotropic =    23.7469   Anisotropy =     8.6939

     92  H    Isotropic =    24.7112   Anisotropy =    14.9761

     93  H    Isotropic =    24.0864   Anisotropy =     6.6797

 Normal termination of Gaussian 09 at Mon Dec  6 16:05:03 2021.
 Gaussian 09:  ES64L-G09RevE.01 30-Nov-2015

 ----------------------------------------------------------------------
 # PBE1PBE gen pseudo=read int=(grid=ultrafine) empiricaldispersion=GD3
 BJ pop=nbo guess=read geom=check
 ----------------------------------------------------------------------

 ------------------
 W001_1_6_F_2 title
 ------------------
 Structure from the checkpoint file:  "W001_1_6_F_2_SPE_NoPd.chk"
 Charge =  0 Multiplicity = 1

                         Standard orientation:
 ---------------------------------------------------------------------
 Center     Atomic      Atomic             Coordinates (Angstroms)
 Number     Number       Type             X           Y           Z
 ---------------------------------------------------------------------
      1          6           0       -2.129148   -4.757992    0.230967
      2          6           0       -3.194100   -5.112861   -0.665522
      3          6           0       -4.419344   -4.586620   -0.129673
      4          6           0       -4.111590   -3.903855    1.096860
      5          6           0       -2.693515   -4.014061    1.320884
      6          1           0       -3.084357   -5.642171   -1.612705
      7          1           0       -5.401776   -4.647490   -0.599004
      8          1           0       -4.825678   -3.373101    1.727689
      9          1           0       -2.135185   -3.595951    2.160076
     10          1           0       -1.071682   -4.987555    0.093447
     11         26           0       -3.081341   -3.077551   -0.468629
     12          6           0       -3.778774   -2.097336   -2.124675
     13          6           0       -3.930761   -1.292358   -0.954049
     14          6           0       -2.629748   -1.078152   -0.365612
     15          6           0       -1.661534   -1.814057   -1.174898
     16          6           0       -2.390472   -2.408899   -2.270040
     17          1           0       -4.584082   -2.450911   -2.768740
     18          1           0       -1.960951   -3.037181   -3.048447
     19          6           0       -0.181605   -2.030672   -0.923987
     20         15           0        0.709804   -0.379113   -1.050478
     21          1           0       -0.044114   -2.403425    0.106104
     22          6           0        0.435617   -3.044533   -1.904247
     23          1           0        1.469638   -3.293146   -1.623071
     24          1           0       -0.159077   -3.972668   -1.883769
     25          1           0        0.448052   -2.642707   -2.930663
     26          6           0        5.275337   -1.131149   -1.599507
     27          6           0        4.619021   -0.194401   -2.405660
     28          6           0        3.236551    0.015369   -2.283579
     29          6           0        2.503933   -0.717375   -1.337745
     30          6           0        3.165199   -1.639179   -0.505971
     31          6           0        4.541610   -1.853349   -0.647886
     32          1           0        6.350757   -1.292862   -1.705139
     33          6           0        5.387725    0.561472   -3.465651
     34          1           0        2.727522    0.730260   -2.934362
     35          1           0        2.618381   -2.192608    0.263933
     36          6           0        5.247325   -2.804899    0.286999
     37          6           0        1.494248    1.269066    3.251031
     38          6           0        0.832562    0.043474    3.105178
     39          6           0        0.556261   -0.472622    1.832707
     40          6           0        0.933294    0.238181    0.683677
     41          6           0        1.616210    1.458996    0.829477
     42          6           0        1.887256    1.972001    2.105027
     43          1           0        1.705366    1.671237    4.245302
     44          6           0        0.446948   -0.729461    4.343604
     45          1           0        0.022406   -1.420798    1.761101
     46          1           0        1.949839    2.008659   -0.057077
     47          6           0        2.540107    3.326347    2.241999
     48          9           0        1.594511    4.318374    2.263581
     49          9           0        3.249240    3.431726    3.394076
     50          9           0        3.372359    3.594382    1.205220
     51          9           0       -0.210231    0.064485    5.235741
     52          9           0       -0.364756   -1.786779    4.060124
     53          9           0        1.543107   -1.218662    4.981314
     54          9           0        4.902628    1.819558   -3.625520
     55          9           0        6.708329    0.661834   -3.145514
     56          9           0        5.309727   -0.063243   -4.668973
     57          9           0        5.670608   -2.167497    1.414031
     58          9           0        4.423856   -3.814722    0.685476
     59          9           0        6.340214   -3.364004   -0.294416
     60         15           0       -1.886035    1.915701   -1.120221
     61          6           0       -6.289483    1.408505   -2.522550
     62          6           0       -5.247422    1.038433   -3.383414
     63          6           0       -3.911213    1.196162   -2.989871
     64          6           0       -3.615840    1.728121   -1.723218
     65          6           0       -4.664543    2.098638   -0.854873
     66          6           0       -5.996345    1.942775   -1.257670
     67          1           0       -7.331460    1.283971   -2.835210
     68          1           0       -5.469689    0.622187   -4.371107
     69          1           0       -3.097318    0.916214   -3.662780
     70          1           0       -4.439288    2.501886    0.137959
     71          1           0       -6.805619    2.238157   -0.581884
     72          1           0       -4.859770   -0.874719   -0.566366
     73          6           0       -2.221305    1.594490    3.005999
     74          6           0       -2.639173    0.273198    3.189585
     75          6           0       -2.743778   -0.577307    2.082870
     76          6           0       -2.438566   -0.145060    0.779139
     77          6           0       -2.068850    1.221440    0.591862
     78          6           0       -1.954148    2.064927    1.713426
     79          1           0       -2.113406    2.268447    3.861603
     80          1           0       -2.861094   -0.104446    4.191923
     81          1           0       -3.066157   -1.611914    2.210499
     82          1           0       -1.670376    3.111194    1.576576
     83          6           0       -1.136264    6.479245   -0.705868
     84          6           0       -0.241496    5.561273   -0.136597
     85          6           0       -0.484351    4.188533   -0.251994
     86          6           0       -1.637025    3.719294   -0.911673
     87          6           0       -2.528809    4.643206   -1.486782
     88          6           0       -2.273456    6.017071   -1.382174
     89          1           0       -0.942878    7.553834   -0.627937
     90          1           0        0.650632    5.904052    0.395870
     91          1           0        0.220625    3.479983    0.188040
     92          1           0       -3.409440    4.288874   -2.027944
     93          1           0       -2.967082    6.729034   -1.840794
 ---------------------------------------------------------------------

 SCF Done:  E(RPBE1PBE) =  -3774.74870048     A.U. after    4 cycles

 The electronic state is 1-A.
 Alpha  occ. eigenvalues --  -77.22204 -77.20676 -24.81566 -24.81565 -24.81543
 Alpha  occ. eigenvalues --  -24.81529 -24.81460 -24.81380 -24.81276 -24.81171
 Alpha  occ. eigenvalues --  -24.81149 -24.81072 -24.81066 -24.81005 -10.49101
 Alpha  occ. eigenvalues --  -10.48995 -10.48988 -10.48940 -10.28537 -10.28512
 Alpha  occ. eigenvalues --  -10.28135 -10.28072 -10.27973 -10.27625 -10.27606
 Alpha  occ. eigenvalues --  -10.27460 -10.27426 -10.27288 -10.27059 -10.26968
 Alpha  occ. eigenvalues --  -10.26879 -10.26185 -10.25627 -10.25565 -10.25268
 Alpha  occ. eigenvalues --  -10.24723 -10.24676 -10.24655 -10.24640 -10.24600
 Alpha  occ. eigenvalues --  -10.24599 -10.24588 -10.24556 -10.24383 -10.24356
 Alpha  occ. eigenvalues --  -10.24208 -10.24166 -10.24056 -10.24039 -10.23981
 Alpha  occ. eigenvalues --  -10.23879 -10.23802 -10.23691 -10.23662 -10.23631
 Alpha  occ. eigenvalues --  -10.23556 -10.23442 -10.23397 -10.23380 -10.23311
 Alpha  occ. eigenvalues --   -6.61804  -6.60279  -4.75412  -4.75354  -4.74920
 Alpha  occ. eigenvalues --   -4.73876  -4.73856  -4.73418  -3.60995  -2.25598
 Alpha  occ. eigenvalues --   -2.21279  -2.21224  -1.35001  -1.34962  -1.34949
 Alpha  occ. eigenvalues --   -1.34861  -1.26815  -1.26753  -1.26576  -1.26569
 Alpha  occ. eigenvalues --   -1.26377  -1.26297  -1.26219  -1.26157  -0.93337
 Alpha  occ. eigenvalues --   -0.93006  -0.92697  -0.90997  -0.89084  -0.88471
 Alpha  occ. eigenvalues --   -0.88062  -0.84863  -0.84533  -0.84458  -0.82034
 Alpha  occ. eigenvalues --   -0.81637  -0.80203  -0.79514  -0.77665  -0.77431
 Alpha  occ. eigenvalues --   -0.76804  -0.76770  -0.75019  -0.74772  -0.74216
 Alpha  occ. eigenvalues --   -0.74170  -0.74161  -0.73955  -0.73326  -0.73103
 Alpha  occ. eigenvalues --   -0.70263  -0.67296  -0.67270  -0.67100  -0.66810
 Alpha  occ. eigenvalues --   -0.66209  -0.64099  -0.63353  -0.63075  -0.62651
 Alpha  occ. eigenvalues --   -0.62354  -0.62245  -0.62241  -0.62190  -0.61953
 Alpha  occ. eigenvalues --   -0.61919  -0.61906  -0.61835  -0.61770  -0.61554
 Alpha  occ. eigenvalues --   -0.60345  -0.58255  -0.57528  -0.57039  -0.56686
 Alpha  occ. eigenvalues --   -0.56329  -0.56291  -0.56027  -0.55745  -0.54928
 Alpha  occ. eigenvalues --   -0.54616  -0.54351  -0.53658  -0.53047  -0.52277
 Alpha  occ. eigenvalues --   -0.51702  -0.51340  -0.50388  -0.49873  -0.49842
 Alpha  occ. eigenvalues --   -0.49681  -0.49631  -0.49587  -0.49568  -0.49285
 Alpha  occ. eigenvalues --   -0.49195  -0.48616  -0.48104  -0.47440  -0.47293
 Alpha  occ. eigenvalues --   -0.46809  -0.46746  -0.46607  -0.46439  -0.46389
 Alpha  occ. eigenvalues --   -0.46169  -0.46141  -0.46065  -0.45808  -0.45639
 Alpha  occ. eigenvalues --   -0.45579  -0.45409  -0.45145  -0.44325  -0.44301
 Alpha  occ. eigenvalues --   -0.44213  -0.44149  -0.44131  -0.43989  -0.43910
 Alpha  occ. eigenvalues --   -0.43819  -0.43758  -0.43577  -0.43372  -0.43119
 Alpha  occ. eigenvalues --   -0.42862  -0.42726  -0.42664  -0.42328  -0.42161
 Alpha  occ. eigenvalues --   -0.41917  -0.41739  -0.41470  -0.40909  -0.40035
 Alpha  occ. eigenvalues --   -0.39998  -0.39657  -0.39527  -0.39405  -0.39226
 Alpha  occ. eigenvalues --   -0.39017  -0.38792  -0.38159  -0.37600  -0.37297
 Alpha  occ. eigenvalues --   -0.36512  -0.36386  -0.36295  -0.35964  -0.35582
 Alpha  occ. eigenvalues --   -0.34122  -0.33846  -0.32392  -0.31103  -0.30641
 Alpha  occ. eigenvalues --   -0.30186  -0.29298  -0.29014  -0.28798  -0.28131
 Alpha  occ. eigenvalues --   -0.27824  -0.27348  -0.26974  -0.26625  -0.26392
 Alpha  occ. eigenvalues --   -0.26269  -0.25952  -0.25411  -0.23023  -0.22927
 Alpha  occ. eigenvalues --   -0.20790
 Alpha virt. eigenvalues --   -0.06934  -0.06669  -0.05845  -0.04901  -0.03799
 Alpha virt. eigenvalues --   -0.03181  -0.02773  -0.01938  -0.01235  -0.01061
 Alpha virt. eigenvalues --   -0.00951  -0.00640  -0.00545   0.01207   0.01785

 Mulliken charges:
               1
     1  C   -0.075091
     2  C   -0.020657
     3  C    0.030694
     4  C   -0.104981
     5  C   -0.196023
     6  H    0.118411
     7  H    0.121220
     8  H    0.130762
     9  H    0.141126
    10  H    0.121900
    11  Fe  -0.591953
    12  C   -0.128518
    13  C    0.008023
    14  C    0.419805
    15  C    0.358814
    16  C   -0.194958
    17  H    0.109622
    18  H    0.138123
    19  C   -0.222674
    20  P    0.071952
    21  H    0.120065
    22  C   -0.458518
    23  H    0.157615
    24  H    0.152123
    25  H    0.146219
    26  C   -0.292633
    27  C    0.166574
    28  C   -0.370346
    29  C    0.223666
    30  C   -0.373889
    31  C    0.175189
    32  H    0.168205
    33  C    0.441770
    34  H    0.157640
    35  H    0.169908
    36  C    0.435557
    37  C   -0.325472
    38  C    0.093141
    39  C   -0.229042
    40  C    0.201950
    41  C   -0.349286
    42  C    0.143723
    43  H    0.152059
    44  C    0.450121
    45  H    0.173977
    46  H    0.168694
    47  C    0.463478
    48  F   -0.164279
    49  F   -0.158952
    50  F   -0.163641
    51  F   -0.169860
    52  F   -0.169209
    53  F   -0.156532
    54  F   -0.159977
    55  F   -0.163934
    56  F   -0.156064
    57  F   -0.155605
    58  F   -0.166382
    59  F   -0.161432
    60  P    0.096751
    61  C   -0.095922
    62  C   -0.147617
    63  C   -0.111717
    64  C    0.074098
    65  C   -0.168052
    66  C   -0.142201
    67  H    0.120993
    68  H    0.117545
    69  H    0.125209
    70  H    0.139058
    71  H    0.121234
    72  H    0.138131
    73  C   -0.207051
    74  C   -0.090388
    75  C   -0.250272
    76  C   -0.048898
    77  C   -0.267017
    78  C   -0.103629
    79  H    0.116314
    80  H    0.119437
    81  H    0.090617
    82  H    0.153478
    83  C   -0.082446
    84  C   -0.185457
    85  C   -0.148749
    86  C    0.076210
    87  C   -0.136414
    88  C   -0.162676
    89  H    0.118675
    90  H    0.124340
    91  H    0.097248
    92  H    0.149686
    93  H    0.117260
 Sum of Mulliken charges =  -0.00000

 Dipole moment (field-independent basis, Debye):
    X=             -5.2249    Y=             -1.3032    Z=             -1.8002  Tot=              5.6779
 Quadrupole moment (field-independent basis, Debye-Ang):
   XX=           -365.1153   YY=           -367.9248   ZZ=           -372.3228
   XY=             -0.3342   XZ=              8.1597   YZ=             13.3465

 Summary of Natural Population Analysis:

                                       Natural Population
                Natural  -----------------------------------------------
    Atom  No    Charge         Core      Valence    Rydberg      Total
 -----------------------------------------------------------------------
      C    1   -0.21139      1.99876     4.18702    0.02560     6.21139
      C    2   -0.20535      1.99877     4.18208    0.02450     6.20535
      C    3   -0.20528      1.99876     4.18122    0.02529     6.20528
      C    4   -0.21380      1.99875     4.19016    0.02488     6.21380
      C    5   -0.21582      1.99876     4.19258    0.02448     6.21582
      H    6    0.24604      0.00000     0.75263    0.00133     0.75396
      H    7    0.24737      0.00000     0.75132    0.00132     0.75263
      H    8    0.24847      0.00000     0.75020    0.00133     0.75153
      H    9    0.24770      0.00000     0.75097    0.00132     0.75230
      H   10    0.24110      0.00000     0.75742    0.00148     0.75890
     Fe   11   -0.31357     17.99260     8.28315    0.03782    26.31357
      C   12   -0.20069      1.99877     4.17868    0.02324     6.20069
      C   13   -0.17994      1.99868     4.15517    0.02609     6.17994
      C   14   -0.04695      1.99859     4.01328    0.03508     6.04695
      C   15   -0.00715      1.99856     3.97381    0.03478     6.00715
      C   16   -0.20578      1.99870     4.18400    0.02308     6.20578
      H   17    0.24594      0.00000     0.75250    0.00156     0.75406
      H   18    0.24569      0.00000     0.75253    0.00177     0.75431
      C   19   -0.49531      1.99928     4.47070    0.02532     6.49531
      P   20    0.84986      9.99802     4.12452    0.02759    14.15014
      H   21    0.22821      0.00000     0.76877    0.00302     0.77179
      C   22   -0.61895      1.99945     4.60657    0.01294     6.61895
      H   23    0.22630      0.00000     0.77274    0.00096     0.77370
      H   24    0.22619      0.00000     0.77258    0.00123     0.77381
      H   25    0.21877      0.00000     0.77994    0.00129     0.78123
      C   26   -0.14878      1.99907     4.13328    0.01642     6.14878
      C   27   -0.14500      1.99898     4.12160    0.02442     6.14500
      C   28   -0.16105      1.99904     4.14352    0.01848     6.16105
      C   29   -0.31094      1.99906     4.28006    0.03183     6.31094
      C   30   -0.16216      1.99902     4.14392    0.01922     6.16216
      C   31   -0.15072      1.99898     4.12656    0.02519     6.15072
      H   32    0.25479      0.00000     0.74388    0.00134     0.74521
      C   33    0.94923      1.99914     3.00376    0.04787     5.05077
      H   34    0.24968      0.00000     0.74895    0.00137     0.75032
      H   35    0.23689      0.00000     0.76103    0.00208     0.76311
      C   36    0.94990      1.99912     3.00369    0.04729     5.05010
      C   37   -0.15757      1.99906     4.14242    0.01609     6.15757
      C   38   -0.13981      1.99895     4.11529    0.02556     6.13981
      C   39   -0.17578      1.99899     4.15703    0.01975     6.17578
      C   40   -0.29169      1.99904     4.25935    0.03331     6.29169
      C   41   -0.18831      1.99902     4.16972    0.01958     6.18831
      C   42   -0.14756      1.99896     4.12360    0.02501     6.14756
      H   43    0.25037      0.00000     0.74829    0.00134     0.74963
      C   44    0.95277      1.99910     3.00140    0.04673     5.04723
      H   45    0.23824      0.00000     0.75946    0.00230     0.76176
      H   46    0.24525      0.00000     0.75279    0.00196     0.75475
      C   47    0.95116      1.99911     3.00272    0.04700     5.04884
      F   48   -0.31999      1.99993     7.31147    0.00859     9.31999
      F   49   -0.30844      1.99992     7.30009    0.00842     9.30844
      F   50   -0.30845      1.99992     7.30028    0.00825     9.30845
      F   51   -0.31437      1.99992     7.30639    0.00806     9.31437
      F   52   -0.31588      1.99992     7.30802    0.00794     9.31588
      F   53   -0.30892      1.99992     7.30115    0.00785     9.30892
      F   54   -0.30895      1.99992     7.30043    0.00860     9.30895
      F   55   -0.31251      1.99993     7.30408    0.00850     9.31251
      F   56   -0.30883      1.99992     7.30049    0.00842     9.30883
      F   57   -0.30906      1.99992     7.30083    0.00830     9.30906
      F   58   -0.31386      1.99993     7.30570    0.00824     9.31386
      F   59   -0.30981      1.99992     7.30140    0.00848     9.30981
      P   60    0.84413      9.99773     4.12839    0.02976    14.15587
      C   61   -0.20943      1.99922     4.19218    0.01804     6.20943
      C   62   -0.21736      1.99921     4.20044    0.01771     6.21736
      C   63   -0.19345      1.99910     4.17434    0.02001     6.19345
      C   64   -0.32190      1.99904     4.28990    0.03296     6.32190
      C   65   -0.20589      1.99908     4.18708    0.01973     6.20589
      C   66   -0.22181      1.99921     4.20455    0.01805     6.22181
      H   67    0.21968      0.00000     0.77915    0.00117     0.78032
      H   68    0.21975      0.00000     0.77898    0.00127     0.78025
      H   69    0.22900      0.00000     0.76927    0.00173     0.77100
      H   70    0.22996      0.00000     0.76772    0.00231     0.77004
      H   71    0.22029      0.00000     0.77840    0.00131     0.77971
      H   72    0.25773      0.00000     0.74013    0.00214     0.74227
      C   73   -0.20607      1.99919     4.18863    0.01825     6.20607
      C   74   -0.21556      1.99920     4.19800    0.01836     6.21556
      C   75   -0.20332      1.99908     4.18648    0.01776     6.20332
      C   76   -0.05194      1.99891     4.02769    0.02535     6.05194
      C   77   -0.27960      1.99894     4.24830    0.03235     6.27960
      C   78   -0.22980      1.99909     4.21042    0.02030     6.22980
      H   79    0.22392      0.00000     0.77485    0.00123     0.77608
      H   80    0.22634      0.00000     0.77240    0.00126     0.77366
      H   81    0.22446      0.00000     0.77333    0.00222     0.77554
      H   82    0.23492      0.00000     0.76263    0.00245     0.76508
      C   83   -0.21699      1.99922     4.19952    0.01825     6.21699
      C   84   -0.20559      1.99920     4.18894    0.01746     6.20559
      C   85   -0.22457      1.99911     4.20636    0.01910     6.22457
      C   86   -0.33225      1.99903     4.30344    0.02978     6.33225
      C   87   -0.21430      1.99911     4.19613    0.01906     6.21430
      C   88   -0.20539      1.99921     4.18852    0.01765     6.20539
      H   89    0.21880      0.00000     0.78004    0.00116     0.78120
      H   90    0.22664      0.00000     0.77208    0.00128     0.77336
      H   91    0.22057      0.00000     0.77795    0.00148     0.77943
      H   92    0.22929      0.00000     0.76905    0.00166     0.77071
      H   93    0.21825      0.00000     0.78050    0.00124     0.78175
 =======================================================================
   * Total *    0.00000    153.94206   316.66303    1.39491   472.00000

 Normal termination of Gaussian 09 at Mon Dec  6 16:34:28 2021.
