 Gaussian 09, Revision E.01,

 ----------------------------------------------------------------------
 # PBE1PBE gen pseudo=read int=(grid=ultrafine) empiricaldispersion=GD3
 BJ nmr=giao
 ----------------------------------------------------------------------

 ------------------
 W001_1_6_F_1 title
 ------------------
 Symbolic Z-matrix:
 Charge =  0 Multiplicity = 1

 SCF Done:  E(RPBE1PBE) =  -4822.93870664     A.U. after   31 cycles

      1  C    Isotropic =   111.6678   Anisotropy =    89.9982

      2  C    Isotropic =   112.4016   Anisotropy =    89.8279

      3  C    Isotropic =   112.3992   Anisotropy =    90.6837

      4  C    Isotropic =   109.9690   Anisotropy =    92.9828

      5  C    Isotropic =   112.8190   Anisotropy =    90.6495

      6  H    Isotropic =    27.4888   Anisotropy =     7.0439

      7  H    Isotropic =    27.5344   Anisotropy =     6.7454

      8  H    Isotropic =    27.2321   Anisotropy =     4.2913

      9  H    Isotropic =    27.1451   Anisotropy =     3.6991

     10  H    Isotropic =    27.2714   Anisotropy =     4.6611

     11  Fe   Isotropic = -6170.3502   Anisotropy =  8226.6400

     12  C    Isotropic =   111.7375   Anisotropy =    92.6623

     13  C    Isotropic =   106.2906   Anisotropy =    91.1282

     14  C    Isotropic =    92.0454   Anisotropy =    95.1174

     15  C    Isotropic =    87.9054   Anisotropy =    94.2111

     16  C    Isotropic =   109.7833   Anisotropy =   100.3220

     17  H    Isotropic =    27.3956   Anisotropy =     7.4780

     18  H    Isotropic =    26.8567   Anisotropy =     2.8583

     19  C    Isotropic =   149.6551   Anisotropy =    25.7988

     20  P    Isotropic =   211.7585   Anisotropy =   201.3006

     21  H    Isotropic =    27.1489   Anisotropy =     6.0494

     22  C    Isotropic =   168.9032   Anisotropy =    18.3515

     23  H    Isotropic =    29.8021   Anisotropy =    10.8597

     24  H    Isotropic =    29.4055   Anisotropy =     9.5346

     25  H    Isotropic =    28.9530   Anisotropy =     5.3140

     26  C    Isotropic =    54.7488   Anisotropy =   189.7333

     27  C    Isotropic =    46.9050   Anisotropy =   160.6598

     28  C    Isotropic =    36.7166   Anisotropy =   200.7922

     29  C    Isotropic =    39.6490   Anisotropy =   183.2940

     30  C    Isotropic =    44.2753   Anisotropy =   194.4607

     31  C    Isotropic =    48.7463   Anisotropy =   158.0154

     32  H    Isotropic =    23.4003   Anisotropy =     9.7661

     33  C    Isotropic =    48.9098   Anisotropy =    14.9881

     34  H    Isotropic =    21.6609   Anisotropy =    17.6499

     35  H    Isotropic =    23.9811   Anisotropy =    15.8538

     36  C    Isotropic =    48.8623   Anisotropy =    14.5848

     37  C    Isotropic =    55.1995   Anisotropy =   192.3369

     38  C    Isotropic =    46.7398   Anisotropy =   168.1216

     39  C    Isotropic =    53.7335   Anisotropy =   198.5821

     40  C    Isotropic =    34.9894   Anisotropy =   208.8518

     41  C    Isotropic =    45.6578   Anisotropy =   198.8876

     42  C    Isotropic =    47.3404   Anisotropy =   166.0110

     43  H    Isotropic =    23.7891   Anisotropy =     9.3165

     44  C    Isotropic =    48.5896   Anisotropy =    12.2915

     45  H    Isotropic =    23.8372   Anisotropy =    11.2423

     46  H    Isotropic =    23.4717   Anisotropy =     9.6011

     47  C    Isotropic =    49.8059   Anisotropy =    16.5002

     48  F    Isotropic =   249.7062   Anisotropy =   139.2820

     49  F    Isotropic =   242.6263   Anisotropy =   126.4159

     50  F    Isotropic =   218.8862   Anisotropy =   145.7304

     51  F    Isotropic =   219.7559   Anisotropy =   148.0714

     52  F    Isotropic =   254.5201   Anisotropy =   123.7234

     53  F    Isotropic =   233.2298   Anisotropy =   149.4885

     54  F    Isotropic =   243.5049   Anisotropy =   140.2246

     55  F    Isotropic =   248.3683   Anisotropy =   140.7535

     56  F    Isotropic =   222.2532   Anisotropy =   144.6580

     57  F    Isotropic =   247.4352   Anisotropy =   138.5342

     58  F    Isotropic =   220.2137   Anisotropy =   148.9008

     59  F    Isotropic =   244.7610   Anisotropy =   139.1100

     60  P    Isotropic =   241.2173   Anisotropy =   110.3124

     61  C    Isotropic =    48.8923   Anisotropy =   192.0220

     62  C    Isotropic =    51.7757   Anisotropy =   186.8755

     63  C    Isotropic =    36.7340   Anisotropy =   207.8165

     64  C    Isotropic =    40.2921   Anisotropy =   174.2873

     65  C    Isotropic =    45.3166   Anisotropy =   193.5172

     66  C    Isotropic =    54.8479   Anisotropy =   179.7431

     67  H    Isotropic =    23.8170   Anisotropy =     3.6710

     68  H    Isotropic =    23.8706   Anisotropy =     6.9110

     69  H    Isotropic =    22.0704   Anisotropy =    13.0715

     70  H    Isotropic =    24.5285   Anisotropy =    15.7631

     71  H    Isotropic =    24.0642   Anisotropy =     8.4045

     72  Cl   Isotropic =   906.0576   Anisotropy =   506.0846

     73  Cl   Isotropic =   893.2372   Anisotropy =   562.1180

     74  H    Isotropic =    27.5623   Anisotropy =     6.4717

     75  C    Isotropic =    51.0091   Anisotropy =   197.2956

     76  C    Isotropic =    47.9124   Anisotropy =   196.5738

     77  C    Isotropic =    44.1885   Anisotropy =   170.2774

     78  C    Isotropic =    37.4063   Anisotropy =   199.2278

     79  C    Isotropic =    39.6058   Anisotropy =   185.2642

     80  C    Isotropic =    46.7630   Anisotropy =   202.2100

     81  H    Isotropic =    24.7620   Anisotropy =     4.0528

     82  H    Isotropic =    23.5858   Anisotropy =     3.9500

     83  H    Isotropic =    22.6175   Anisotropy =     7.5495

     84  H    Isotropic =    24.7204   Anisotropy =     8.0850

     85  C    Isotropic =    46.4434   Anisotropy =   197.4451

     86  C    Isotropic =    51.1735   Anisotropy =   187.8647

     87  C    Isotropic =    42.2287   Anisotropy =   198.7258

     88  C    Isotropic =    45.2858   Anisotropy =   180.5037

     89  C    Isotropic =    36.2028   Anisotropy =   185.4746

     90  C    Isotropic =    49.1783   Anisotropy =   191.3021

     91  H    Isotropic =    23.5630   Anisotropy =     3.6598

     92  H    Isotropic =    23.9162   Anisotropy =     5.9413

     93  H    Isotropic =    24.4367   Anisotropy =    12.5094

     94  H    Isotropic =    21.4719   Anisotropy =    13.7454

     95  H    Isotropic =    23.3727   Anisotropy =     7.5290

     96  Pd   Isotropic =  -174.4715   Anisotropy =   251.7429

 Normal termination of Gaussian 09 at Mon Dec  6 18:27:26 2021.
 Gaussian 09:  ES64L-G09RevE.01 30-Nov-2015

 ----------------------------------------------------------------------
 # PBE1PBE gen pseudo=read int=(grid=ultrafine) empiricaldispersion=GD3
 BJ pop=nbo guess=read geom=check
 ----------------------------------------------------------------------

 ------------------
 W001_1_6_F_1 title
 ------------------
 Structure from the checkpoint file:  "W001_1_6_F_1_SPE.chk"
 Charge =  0 Multiplicity = 1

                         Standard orientation:
 ---------------------------------------------------------------------
 Center     Atomic      Atomic             Coordinates (Angstroms)
 Number     Number       Type             X           Y           Z
 ---------------------------------------------------------------------
      1          6           0       -2.897284   -5.309289   -0.229218
      2          6           0       -4.221343   -4.995092   -0.692939
      3          6           0       -4.893205   -4.260222    0.342459
      4          6           0       -3.987680   -4.122999    1.447726
      5          6           0       -2.750802   -4.767733    1.095364
      6          1           0       -4.623700   -5.223797   -1.680354
      7          1           0       -5.897094   -3.838770    0.281873
      8          1           0       -4.203651   -3.598047    2.378751
      9          1           0       -1.853958   -4.824583    1.714357
     10          1           0       -2.129577   -5.834150   -0.798832
     11         26           0       -3.186674   -3.287625   -0.252376
     12          6           0       -3.485631   -2.106865   -1.899092
     13          6           0       -3.730935   -1.368335   -0.696299
     14          6           0       -2.527004   -1.385522    0.100231
     15          6           0       -1.537772   -2.168455   -0.628959
     16          6           0       -2.140120   -2.589452   -1.865302
     17          1           0       -4.213511   -2.305282   -2.685617
     18          1           0       -1.657468   -3.189452   -2.634178
     19          6           0       -0.098782   -2.353116   -0.219390
     20         15           0        0.694693   -0.645219   -0.493775
     21          1           0       -0.066957   -2.552512    0.865087
     22          6           0        0.606615   -3.483344   -0.979835
     23          1           0        1.611931   -3.684275   -0.579942
     24          1           0        0.004068   -4.402338   -0.879665
     25          1           0        0.702406   -3.234351   -2.048659
     26          6           0        5.182302   -0.911302   -1.721484
     27          6           0        4.306137   -0.065297   -2.412299
     28          6           0        2.945032   -0.017075   -2.078855
     29          6           0        2.453400   -0.814664   -1.033122
     30          6           0        3.337030   -1.637507   -0.314635
     31          6           0        4.690969   -1.696986   -0.670639
     32          1           0        6.239910   -0.951647   -1.992731
     33          6           0        4.808521    0.761855   -3.572700
     34          1           0        2.263135    0.626104   -2.639821
     35          1           0        2.986885   -2.231244    0.534663
     36          6           0        5.633219   -2.550531    0.141863
     37          6           0        1.981319    1.175542    3.616893
     38          6           0        1.631966   -0.178503    3.553238
     39          6           0        1.194638   -0.750798    2.350557
     40          6           0        1.107148    0.029525    1.187068
     41          6           0        1.471438    1.386054    1.249835
     42          6           0        1.892278    1.955575    2.457842
     43          1           0        2.318141    1.618680    4.557576
     44          6           0        1.664224   -0.994568    4.821925
     45          1           0        0.923335   -1.808216    2.348286
     46          1           0        1.414565    2.010696    0.354655
     47          6           0        2.144334    3.441576    2.528534
     48          9           0        2.976798    3.767427    3.552192
     49          9           0        2.688395    3.919576    1.379727
     50          9           0        0.973123    4.115750    2.732972
     51          9           0        0.662608   -0.615687    5.673673
     52          9           0        1.507397   -2.323211    4.583723
     53          9           0        2.832296   -0.824256    5.493665
     54          9           0        4.156111    1.952658   -3.649729
     55          9           0        6.140066    1.025553   -3.457573
     56          9           0        4.623980    0.120035   -4.754832
     57          9           0        6.696912   -2.967846   -0.592623
     58          9           0        6.124793   -1.864828    1.211815
     59          9           0        5.005099   -3.655883    0.632541
     60         15           0       -1.944709    1.645232   -0.326152
     61          6           0       -6.443775    2.782070   -0.766910
     62          6           0       -5.501795    3.221102   -1.708403
     63          6           0       -4.156530    2.851238   -1.594024
     64          6           0       -3.741694    2.021183   -0.532086
     65          6           0       -4.687097    1.599122    0.424398
     66          6           0       -6.031837    1.976421    0.303005
     67          1           0       -7.494600    3.074516   -0.861709
     68          1           0       -5.812858    3.857446   -2.542976
     69          1           0       -3.428214    3.186011   -2.335250
     70          1           0       -4.376602    0.983966    1.273136
     71          1           0       -6.755166    1.641755    1.053950
     72         17           0       -1.928086    1.590936   -3.620448
     73         17           0        0.308104   -0.908082   -3.578521
     74          1           0       -4.670608   -0.896409   -0.414287
     75          6           0       -1.562838    0.769976    3.714409
     76          6           0       -1.865667   -0.596060    3.766011
     77          6           0       -2.191216   -1.279397    2.588698
     78          6           0       -2.236221   -0.624025    1.343401
     79          6           0       -1.924663    0.766384    1.300734
     80          6           0       -1.590568    1.444698    2.487881
     81          1           0       -1.275093    1.305703    4.623928
     82          1           0       -1.819448   -1.133798    4.717550
     83          1           0       -2.413460   -2.348724    2.607945
     84          1           0       -1.304846    2.499481    2.450518
     85          6           0       -0.201161    5.912650    0.238266
     86          6           0       -1.370444    5.548875    0.923709
     87          6           0       -1.909986    4.267166    0.764445
     88          6           0       -1.263387    3.330046   -0.068144
     89          6           0       -0.109713    3.711750   -0.778871
     90          6           0        0.422808    4.997959   -0.620406
     91          1           0        0.215130    6.917162    0.363942
     92          1           0       -1.870743    6.270520    1.577494
     93          1           0       -2.841293    3.996660    1.273183
     94          1           0        0.342780    2.996785   -1.477778
     95          1           0        1.320850    5.285529   -1.175666
     96         46           0       -0.705748    0.505886   -1.917946
 ---------------------------------------------------------------------

 SCF Done:  E(RPBE1PBE) =  -4822.93870665     A.U. after    3 cycles

 The electronic state is 1-A.
 Alpha  occ. eigenvalues -- -101.63179-101.62566 -77.28488 -77.27842 -24.83071
 Alpha  occ. eigenvalues --  -24.82561 -24.82477 -24.82426 -24.82300 -24.81963
 Alpha  occ. eigenvalues --  -24.81812 -24.81763 -24.81385 -24.80968 -24.80820
 Alpha  occ. eigenvalues --  -24.80444 -10.50452 -10.50037 -10.49407 -10.48580
 Alpha  occ. eigenvalues --  -10.29844 -10.29684 -10.29492 -10.29140 -10.29102
 Alpha  occ. eigenvalues --  -10.28809 -10.28761 -10.28650 -10.28433 -10.28428
 Alpha  occ. eigenvalues --  -10.28411 -10.28154 -10.27942 -10.27706 -10.27629
 Alpha  occ. eigenvalues --  -10.26825 -10.26512 -10.26486 -10.26426 -10.26387
 Alpha  occ. eigenvalues --  -10.26153 -10.26017 -10.25958 -10.25915 -10.25739
 Alpha  occ. eigenvalues --  -10.25509 -10.25364 -10.25350 -10.25250 -10.25194
 Alpha  occ. eigenvalues --  -10.25183 -10.25088 -10.25035 -10.24995 -10.24976
 Alpha  occ. eigenvalues --  -10.24945 -10.24821 -10.24670 -10.24592 -10.24508
 Alpha  occ. eigenvalues --  -10.24410 -10.23797  -9.45699  -9.45076  -7.18885
 Alpha  occ. eigenvalues --   -7.18420  -7.18386  -7.18289  -7.17789  -7.17746
 Alpha  occ. eigenvalues --   -6.67677  -6.66999  -4.81292  -4.81215  -4.80999
 Alpha  occ. eigenvalues --   -4.80595  -4.80570  -4.80345  -3.61518  -3.53233
 Alpha  occ. eigenvalues --   -2.26109  -2.21803  -2.21752  -2.21052  -2.20839
 Alpha  occ. eigenvalues --   -2.17425  -1.36302  -1.35833  -1.35266  -1.34398
 Alpha  occ. eigenvalues --   -1.28105  -1.27598  -1.27545  -1.27132  -1.26998
 Alpha  occ. eigenvalues --   -1.26591  -1.26088  -1.25736  -0.94730  -0.93819
 Alpha  occ. eigenvalues --   -0.93505  -0.91821  -0.90894  -0.90255  -0.89476
 Alpha  occ. eigenvalues --   -0.86090  -0.86022  -0.84931  -0.83271  -0.82574
 Alpha  occ. eigenvalues --   -0.82503  -0.81527  -0.79359  -0.79093  -0.78423
 Alpha  occ. eigenvalues --   -0.78254  -0.76180  -0.76044  -0.75438  -0.75043
 Alpha  occ. eigenvalues --   -0.74880  -0.74648  -0.74627  -0.74282  -0.74114
 Alpha  occ. eigenvalues --   -0.73776  -0.72206  -0.70076  -0.68566  -0.67860
 Alpha  occ. eigenvalues --   -0.67317  -0.66997  -0.65719  -0.64951  -0.64725
 Alpha  occ. eigenvalues --   -0.64441  -0.63598  -0.63523  -0.63342  -0.63216
 Alpha  occ. eigenvalues --   -0.63123  -0.62791  -0.62366  -0.62211  -0.61971
 Alpha  occ. eigenvalues --   -0.61319  -0.61022  -0.60286  -0.58207  -0.58118
 Alpha  occ. eigenvalues --   -0.57622  -0.57419  -0.57108  -0.56952  -0.56332
 Alpha  occ. eigenvalues --   -0.56146  -0.55721  -0.55136  -0.54696  -0.54262
 Alpha  occ. eigenvalues --   -0.53876  -0.52798  -0.52113  -0.52071  -0.51131
 Alpha  occ. eigenvalues --   -0.50986  -0.50756  -0.50682  -0.50369  -0.50064
 Alpha  occ. eigenvalues --   -0.49774  -0.49595  -0.49229  -0.49192  -0.48834
 Alpha  occ. eigenvalues --   -0.48817  -0.48441  -0.48121  -0.47952  -0.47627
 Alpha  occ. eigenvalues --   -0.47467  -0.47239  -0.47018  -0.46830  -0.46661
 Alpha  occ. eigenvalues --   -0.46343  -0.46010  -0.45733  -0.45654  -0.45559
 Alpha  occ. eigenvalues --   -0.45459  -0.45329  -0.45150  -0.45058  -0.44957
 Alpha  occ. eigenvalues --   -0.44781  -0.44598  -0.44507  -0.44422  -0.44175
 Alpha  occ. eigenvalues --   -0.44145  -0.44049  -0.43900  -0.43472  -0.43396
 Alpha  occ. eigenvalues --   -0.43263  -0.43044  -0.42649  -0.42188  -0.41879
 Alpha  occ. eigenvalues --   -0.41422  -0.40994  -0.40736  -0.40526  -0.40453
 Alpha  occ. eigenvalues --   -0.40319  -0.40177  -0.39821  -0.39565  -0.39249
 Alpha  occ. eigenvalues --   -0.38907  -0.38747  -0.38293  -0.38191  -0.37782
 Alpha  occ. eigenvalues --   -0.37544  -0.37377  -0.36924  -0.36608  -0.36289
 Alpha  occ. eigenvalues --   -0.34792  -0.33638  -0.33118  -0.32545  -0.32296
 Alpha  occ. eigenvalues --   -0.31661  -0.31024  -0.30814  -0.29873  -0.29698
 Alpha  occ. eigenvalues --   -0.29636  -0.29259  -0.29070  -0.28818  -0.28653
 Alpha  occ. eigenvalues --   -0.28321  -0.27842  -0.27488  -0.27329  -0.26518
 Alpha  occ. eigenvalues --   -0.26482  -0.26041  -0.25755  -0.24962  -0.24675
 Alpha  occ. eigenvalues --   -0.23549  -0.23489
 Alpha virt. eigenvalues --   -0.09490  -0.08230  -0.07747  -0.06364  -0.05803
 Alpha virt. eigenvalues --   -0.05704  -0.05183  -0.04528  -0.03391  -0.03232
 Alpha virt. eigenvalues --   -0.02153  -0.01492  -0.01295  -0.00939  -0.00292

 Mulliken charges:
               1
     1  C   -0.065832
     2  C   -0.044510
     3  C    0.023948
     4  C   -0.092263
     5  C   -0.151916
     6  H    0.125445
     7  H    0.123588
     8  H    0.127272
     9  H    0.121823
    10  H    0.129823
    11  Fe  -0.494798
    12  C   -0.116908
    13  C   -0.031318
    14  C    0.417114
    15  C    0.149742
    16  C    0.009727
    17  H    0.117321
    18  H    0.140469
    19  C   -0.115194
    20  P    0.177324
    21  H    0.092671
    22  C   -0.401837
    23  H    0.132186
    24  H    0.141215
    25  H    0.174152
    26  C   -0.284006
    27  C    0.133208
    28  C   -0.270642
    29  C    0.143492
    30  C   -0.372638
    31  C    0.147983
    32  H    0.168231
    33  C    0.434603
    34  H    0.223457
    35  H    0.166419
    36  C    0.434323
    37  C   -0.312982
    38  C    0.136130
    39  C   -0.350016
    40  C    0.352071
    41  C   -0.305877
    42  C    0.084537
    43  H    0.162458
    44  C    0.445431
    45  H    0.145525
    46  H    0.159283
    47  C    0.465323
    48  F   -0.158656
    49  F   -0.162249
    50  F   -0.158675
    51  F   -0.165838
    52  F   -0.166821
    53  F   -0.154804
    54  F   -0.161954
    55  F   -0.165963
    56  F   -0.148540
    57  F   -0.159087
    58  F   -0.157272
    59  F   -0.166380
    60  P    0.279636
    61  C   -0.096713
    62  C   -0.141900
    63  C   -0.170046
    64  C    0.113014
    65  C   -0.212318
    66  C   -0.160919
    67  H    0.124497
    68  H    0.128186
    69  H    0.164366
    70  H    0.167982
    71  H    0.123785
    72  Cl  -0.411563
    73  Cl  -0.396022
    74  H    0.139388
    75  C   -0.206792
    76  C   -0.103593
    77  C   -0.280508
    78  C   -0.142305
    79  C   -0.261671
    80  C    0.018048
    81  H    0.121363
    82  H    0.130504
    83  H    0.120019
    84  H    0.173500
    85  C   -0.078470
    86  C   -0.131168
    87  C   -0.209582
    88  C   -0.000906
    89  C   -0.188255
    90  C   -0.126063
    91  H    0.127085
    92  H    0.124886
    93  H    0.166290
    94  H    0.233180
    95  H    0.132624
    96  Pd   0.061121
 Sum of Mulliken charges =  -0.00000

 Dipole moment (field-independent basis, Debye):
    X=             -4.6933    Y=              0.4678    Z=              8.0039  Tot=              9.2902
 Quadrupole moment (field-independent basis, Debye-Ang):
   XX=           -402.2167   YY=           -394.0733   ZZ=           -448.4545
   XY=             -0.9984   XZ=             -6.4346   YZ=             12.0495

 Summary of Natural Population Analysis:

                                       Natural Population
                Natural  -----------------------------------------------
    Atom  No    Charge         Core      Valence    Rydberg      Total
 -----------------------------------------------------------------------
      C    1   -0.20522      1.99875     4.18108    0.02539     6.20522
      C    2   -0.20181      1.99877     4.17763    0.02542     6.20181
      C    3   -0.20465      1.99877     4.18060    0.02528     6.20465
      C    4   -0.21272      1.99876     4.18871    0.02524     6.21272
      C    5   -0.21739      1.99875     4.19397    0.02468     6.21739
      H    6    0.24973      0.00000     0.74894    0.00132     0.75027
      H    7    0.24876      0.00000     0.74994    0.00130     0.75124
      H    8    0.24425      0.00000     0.75442    0.00133     0.75575
      H    9    0.24296      0.00000     0.75571    0.00133     0.75704
      H   10    0.24699      0.00000     0.75162    0.00139     0.75301
     Fe   11   -0.30765     17.99201     8.27727    0.03837    26.30765
      C   12   -0.17993      1.99879     4.15892    0.02222     6.17993
      C   13   -0.19042      1.99871     4.16767    0.02404     6.19042
      C   14   -0.07131      1.99858     4.03855    0.03417     6.07131
      C   15   -0.01503      1.99860     3.97826    0.03818     6.01503
      C   16   -0.18073      1.99871     4.15781    0.02421     6.18073
      H   17    0.25201      0.00000     0.74669    0.00131     0.74799
      H   18    0.26471      0.00000     0.73361    0.00167     0.73529
      C   19   -0.49678      1.99923     4.46840    0.02916     6.49678
      P   20    1.17891      9.99558     3.77406    0.05145    13.82109
      H   21    0.23959      0.00000     0.75805    0.00236     0.76041
      C   22   -0.62947      1.99944     4.61633    0.01370     6.62947
      H   23    0.21965      0.00000     0.77940    0.00096     0.78035
      H   24    0.22874      0.00000     0.77002    0.00124     0.77126
      H   25    0.25173      0.00000     0.74717    0.00110     0.74827
      C   26   -0.13792      1.99907     4.12269    0.01617     6.13792
      C   27   -0.14792      1.99898     4.12427    0.02467     6.14792
      C   28   -0.12450      1.99903     4.10712    0.01835     6.12450
      C   29   -0.33939      1.99899     4.30586    0.03453     6.33939
      C   30   -0.16268      1.99902     4.14350    0.02016     6.16268
      C   31   -0.15380      1.99897     4.12982    0.02501     6.15380
      H   32    0.25564      0.00000     0.74304    0.00132     0.74436
      C   33    0.95068      1.99914     3.00244    0.04774     5.04932
      H   34    0.27123      0.00000     0.72731    0.00146     0.72877
      H   35    0.23499      0.00000     0.76287    0.00214     0.76501
      C   36    0.95104      1.99912     3.00249    0.04735     5.04896
      C   37   -0.14802      1.99906     4.13296    0.01600     6.14802
      C   38   -0.14176      1.99895     4.11744    0.02537     6.14176
      C   39   -0.16824      1.99899     4.14957    0.01968     6.16824
      C   40   -0.32925      1.99902     4.29325    0.03697     6.32925
      C   41   -0.16052      1.99900     4.14231    0.01921     6.16052
      C   42   -0.14479      1.99895     4.12075    0.02508     6.14479
      H   43    0.25454      0.00000     0.74407    0.00139     0.74546
      C   44    0.95123      1.99910     3.00323    0.04644     5.04877
      H   45    0.23831      0.00000     0.75995    0.00174     0.76169
      H   46    0.25446      0.00000     0.74325    0.00229     0.74554
      C   47    0.95214      1.99911     3.00173    0.04701     5.04786
      F   48   -0.30931      1.99992     7.30140    0.00798     9.30931
      F   49   -0.30653      1.99992     7.29842    0.00818     9.30653
      F   50   -0.31388      1.99993     7.30565    0.00831     9.31388
      F   51   -0.31767      1.99993     7.30947    0.00828     9.31767
      F   52   -0.31053      1.99992     7.30255    0.00805     9.31053
      F   53   -0.30554      1.99992     7.29745    0.00817     9.30554
      F   54   -0.30923      1.99992     7.30076    0.00855     9.30923
      F   55   -0.31386      1.99993     7.30546    0.00847     9.31386
      F   56   -0.30258      1.99992     7.29414    0.00851     9.30258
      F   57   -0.30797      1.99992     7.29953    0.00851     9.30797
      F   58   -0.31056      1.99992     7.30234    0.00830     9.31056
      F   59   -0.31447      1.99993     7.30628    0.00826     9.31447
      P   60    1.19767      9.99545     3.75358    0.05330    13.80233
      C   61   -0.19393      1.99922     4.17674    0.01797     6.19393
      C   62   -0.20792      1.99921     4.19129    0.01743     6.20792
      C   63   -0.17597      1.99911     4.15788    0.01898     6.17597
      C   64   -0.35077      1.99899     4.31636    0.03542     6.35077
      C   65   -0.21689      1.99909     4.19815    0.01964     6.21689
      C   66   -0.22278      1.99921     4.20508    0.01850     6.22278
      H   67    0.22150      0.00000     0.77735    0.00115     0.77850
      H   68    0.22584      0.00000     0.77297    0.00119     0.77416
      H   69    0.25984      0.00000     0.73849    0.00166     0.74016
      H   70    0.22968      0.00000     0.76804    0.00229     0.77032
      H   71    0.22163      0.00000     0.77713    0.00125     0.77837
     Cl   72   -0.38743      9.99961     7.37900    0.00882    17.38743
     Cl   73   -0.41005      9.99962     7.40172    0.00871    17.41005
      H   74    0.25731      0.00000     0.74060    0.00209     0.74269
      C   75   -0.20699      1.99920     4.18962    0.01816     6.20699
      C   76   -0.19688      1.99920     4.17987    0.01781     6.19688
      C   77   -0.21172      1.99908     4.19469    0.01796     6.21172
      C   78   -0.03025      1.99893     4.00708    0.02423     6.03025
      C   79   -0.33308      1.99895     4.29827    0.03587     6.33308
      C   80   -0.21033      1.99908     4.19019    0.02106     6.21033
      H   81    0.23080      0.00000     0.76794    0.00126     0.76920
      H   82    0.23178      0.00000     0.76698    0.00124     0.76822
      H   83    0.23072      0.00000     0.76706    0.00222     0.76928
      H   84    0.24153      0.00000     0.75635    0.00212     0.75847
      C   85   -0.18358      1.99922     4.16679    0.01757     6.18358
      C   86   -0.20621      1.99921     4.18933    0.01767     6.20621
      C   87   -0.19926      1.99910     4.18041    0.01975     6.19926
      C   88   -0.37225      1.99900     4.34092    0.03233     6.37225
      C   89   -0.18964      1.99909     4.17135    0.01920     6.18964
      C   90   -0.20337      1.99920     4.18659    0.01758     6.20337
      H   91    0.22459      0.00000     0.77427    0.00114     0.77541
      H   92    0.22482      0.00000     0.77396    0.00122     0.77518
      H   93    0.23107      0.00000     0.76693    0.00200     0.76893
      H   94    0.24090      0.00000     0.75696    0.00215     0.75910
      H   95    0.22990      0.00000     0.76888    0.00122     0.77010
     Pd   96   -0.17855     35.98834    10.15904    0.03118    46.17855
 =======================================================================
   * Total *    0.00000    209.92415   340.56606    1.50979   552.00000

 Normal termination of Gaussian 09 at Mon Dec  6 18:56:09 2021.
