 Gaussian 09, Revision E.01,

 ----------------------------------------------------------------------
 # PBE1PBE gen pseudo=read int=(grid=ultrafine) empiricaldispersion=GD3
 BJ nmr=giao
 ----------------------------------------------------------------------

 ------------------
 W001_1_6_F_2 title
 ------------------
 Symbolic Z-matrix:
 Charge =  0 Multiplicity = 1

 SCF Done:  E(RPBE1PBE) =  -4822.93883253     A.U. after   29 cycles

      1  C    Isotropic =   107.9798   Anisotropy =    97.2187

      2  C    Isotropic =   111.8148   Anisotropy =    90.8352

      3  C    Isotropic =   112.6909   Anisotropy =    87.7910

      4  C    Isotropic =   112.3586   Anisotropy =    89.2657

      5  C    Isotropic =   111.0647   Anisotropy =    92.3996

      6  H    Isotropic =    27.3713   Anisotropy =     6.1216

      7  H    Isotropic =    27.5968   Anisotropy =     7.1788

      8  H    Isotropic =    27.2810   Anisotropy =     4.8933

      9  H    Isotropic =    27.0601   Anisotropy =     5.5707

     10  H    Isotropic =    27.6189   Anisotropy =     3.1679

     11  Fe   Isotropic = -6218.0013   Anisotropy =  8316.3081

     12  C    Isotropic =   113.6681   Anisotropy =    92.5211

     13  C    Isotropic =   102.8926   Anisotropy =    90.7780

     14  C    Isotropic =    91.1248   Anisotropy =    95.9139

     15  C    Isotropic =    93.0392   Anisotropy =    84.7526

     16  C    Isotropic =   110.4059   Anisotropy =    87.7078

     17  H    Isotropic =    28.0151   Anisotropy =     7.1082

     18  H    Isotropic =    26.9891   Anisotropy =     3.6504

     19  C    Isotropic =   149.5853   Anisotropy =    22.7451

     20  P    Isotropic =   220.0081   Anisotropy =   177.0604

     21  H    Isotropic =    26.7221   Anisotropy =     6.2058

     22  C    Isotropic =   169.0922   Anisotropy =    13.5554

     23  H    Isotropic =    30.0823   Anisotropy =     9.8359

     24  H    Isotropic =    29.3953   Anisotropy =     9.0895

     25  H    Isotropic =    28.4400   Anisotropy =     7.6313

     26  C    Isotropic =    54.0182   Anisotropy =   190.7769

     27  C    Isotropic =    46.1104   Anisotropy =   162.3301

     28  C    Isotropic =    36.7572   Anisotropy =   203.7260

     29  C    Isotropic =    40.0312   Anisotropy =   185.4337

     30  C    Isotropic =    44.1525   Anisotropy =   195.1891

     31  C    Isotropic =    48.2656   Anisotropy =   159.2577

     32  H    Isotropic =    23.2956   Anisotropy =     9.6565

     33  C    Isotropic =    49.1264   Anisotropy =    15.0246

     34  H    Isotropic =    21.4158   Anisotropy =    17.1611

     35  H    Isotropic =    23.9870   Anisotropy =    16.1464

     36  C    Isotropic =    48.8364   Anisotropy =    14.7674

     37  C    Isotropic =    54.6432   Anisotropy =   192.3586

     38  C    Isotropic =    47.2814   Anisotropy =   167.9458

     39  C    Isotropic =    52.3225   Anisotropy =   201.3280

     40  C    Isotropic =    34.4209   Anisotropy =   206.2321

     41  C    Isotropic =    45.4216   Anisotropy =   196.1485

     42  C    Isotropic =    47.0504   Anisotropy =   164.4710

     43  H    Isotropic =    23.5498   Anisotropy =     9.2094

     44  C    Isotropic =    48.5578   Anisotropy =    13.3942

     45  H    Isotropic =    23.5350   Anisotropy =     9.6002

     46  H    Isotropic =    23.0639   Anisotropy =    13.8327

     47  C    Isotropic =    48.8042   Anisotropy =    13.3350

     48  F    Isotropic =   217.1723   Anisotropy =   151.2214

     49  F    Isotropic =   245.9795   Anisotropy =   138.3489

     50  F    Isotropic =   246.5854   Anisotropy =   133.7859

     51  F    Isotropic =   228.1648   Anisotropy =   144.9750

     52  F    Isotropic =   250.8211   Anisotropy =   115.3427

     53  F    Isotropic =   220.5315   Anisotropy =   152.6258

     54  F    Isotropic =   243.1183   Anisotropy =   138.2402

     55  F    Isotropic =   248.4738   Anisotropy =   140.5987

     56  F    Isotropic =   222.4917   Anisotropy =   144.7641

     57  F    Isotropic =   219.9754   Anisotropy =   148.3179

     58  F    Isotropic =   246.3304   Anisotropy =   138.9001

     59  F    Isotropic =   246.4828   Anisotropy =   139.0548

     60  P    Isotropic =   238.1822   Anisotropy =   110.0398

     61  C    Isotropic =    48.9078   Anisotropy =   193.2137

     62  C    Isotropic =    51.7589   Anisotropy =   188.8659

     63  C    Isotropic =    31.7921   Anisotropy =   215.5115

     64  C    Isotropic =    46.1978   Anisotropy =   181.2497

     65  C    Isotropic =    44.1855   Anisotropy =   197.5843

     66  C    Isotropic =    54.2543   Anisotropy =   183.2380

     67  H    Isotropic =    23.7837   Anisotropy =     2.8981

     68  H    Isotropic =    23.8093   Anisotropy =     6.8768

     69  H    Isotropic =    22.2984   Anisotropy =    11.1372

     70  H    Isotropic =    24.8445   Anisotropy =    13.5381

     71  H    Isotropic =    24.2091   Anisotropy =     6.9443

     72  Cl   Isotropic =   816.5481   Anisotropy =   459.3676

     73  Cl   Isotropic =   916.7007   Anisotropy =   582.2351

     74  H    Isotropic =    29.2084   Anisotropy =     5.6887

     75  C    Isotropic =    51.9508   Anisotropy =   193.0949

     76  C    Isotropic =    48.0729   Anisotropy =   195.9741

     77  C    Isotropic =    41.9376   Anisotropy =   171.6142

     78  C    Isotropic =    36.7560   Anisotropy =   200.1275

     79  C    Isotropic =    35.1354   Anisotropy =   191.3299

     80  C    Isotropic =    47.4748   Anisotropy =   199.4246

     81  H    Isotropic =    24.4231   Anisotropy =     3.9422

     82  H    Isotropic =    23.6349   Anisotropy =     3.0385

     83  H    Isotropic =    22.7120   Anisotropy =     7.6298

     84  H    Isotropic =    24.1999   Anisotropy =     9.2925

     85  C    Isotropic =    48.8920   Anisotropy =   191.5802

     86  C    Isotropic =    52.5199   Anisotropy =   187.2925

     87  C    Isotropic =    46.3263   Anisotropy =   189.8274

     88  C    Isotropic =    47.7939   Anisotropy =   172.8962

     89  C    Isotropic =    43.0620   Anisotropy =   197.4396

     90  C    Isotropic =    50.9895   Anisotropy =   186.2688

     91  H    Isotropic =    23.7403   Anisotropy =     4.4599

     92  H    Isotropic =    23.5617   Anisotropy =     9.1466

     93  H    Isotropic =    23.7055   Anisotropy =    10.4467

     94  H    Isotropic =    24.3716   Anisotropy =    14.7130

     95  H    Isotropic =    23.9504   Anisotropy =     7.1406

     96  Pd   Isotropic =  -151.4474   Anisotropy =   255.5710

 Normal termination of Gaussian 09 at Mon Dec  6 18:15:00 2021.
 Gaussian 09:  ES64L-G09RevE.01 30-Nov-2015

 ----------------------------------------------------------------------
 # PBE1PBE gen pseudo=read int=(grid=ultrafine) empiricaldispersion=GD3
 BJ pop=nbo guess=read geom=check
 ----------------------------------------------------------------------

 ------------------
 W001_1_6_F_2 title
 ------------------
 Structure from the checkpoint file:  "W001_1_6_F_2_SPE.chk"
 Charge =  0 Multiplicity = 1

                         Standard orientation:
 ---------------------------------------------------------------------
 Center     Atomic      Atomic             Coordinates (Angstroms)
 Number     Number       Type             X           Y           Z
 ---------------------------------------------------------------------
      1          6           0        1.875465    4.915651   -1.137174
      2          6           0        2.950072    4.964543   -2.089317
      3          6           0        4.179649    4.729800   -1.383396
      4          6           0        3.865051    4.532940    0.004962
      5          6           0        2.438137    4.652084    0.156579
      6          1           0        2.845929    5.102385   -3.166128
      7          1           0        5.171511    4.659070   -1.831008
      8          1           0        4.581615    4.305300    0.795079
      9          1           0        1.873613    4.546831    1.084493
     10          1           0        0.814055    5.029261   -1.361556
     11         26           0        2.911183    3.141703   -1.156735
     12          6           0        3.691513    1.654194   -2.326403
     13          6           0        3.842426    1.344548   -0.939752
     14          6           0        2.535031    1.301972   -0.328456
     15          6           0        1.561563    1.642678   -1.362969
     16          6           0        2.296669    1.825748   -2.592044
     17          1           0        4.499876    1.782770   -3.046384
     18          1           0        1.864617    2.102815   -3.552100
     19          6           0        0.067985    1.867671   -1.226314
     20         15           0       -0.754697    0.246126   -0.744604
     21          1           0       -0.112189    2.586596   -0.408012
     22          6           0       -0.560996    2.419821   -2.518328
     23          1           0       -1.611249    2.706312   -2.360339
     24          1           0       -0.003640    3.316803   -2.835017
     25          1           0       -0.529549    1.668308   -3.324173
     26          6           0       -5.329189    0.531054   -1.583606
     27          6           0       -4.615004   -0.605182   -1.979886
     28          6           0       -3.229304   -0.691046   -1.773503
     29          6           0       -2.552041    0.371458   -1.156538
     30          6           0       -3.271294    1.503017   -0.730990
     31          6           0       -4.650566    1.585948   -0.957361
     32          1           0       -6.406770    0.592561   -1.753522
     33          6           0       -5.324272   -1.732851   -2.694819
     34          1           0       -2.675143   -1.570889   -2.108884
     35          1           0       -2.767805    2.325645   -0.213469
     36          6           0       -5.418212    2.781025   -0.447455
     37          6           0       -1.592501    0.262441    3.852420
     38          6           0       -0.975220    1.377537    3.272161
     39          6           0       -0.684294    1.401255    1.902241
     40          6           0       -1.001639    0.300802    1.092329
     41          6           0       -1.640310   -0.810861    1.670538
     42          6           0       -1.926191   -0.830333    3.042238
     43          1           0       -1.815093    0.245142    4.922487
     44          6           0       -0.654180    2.568990    4.142333
     45          1           0       -0.185953    2.280139    1.491893
     46          1           0       -1.927789   -1.663055    1.045611
     47          6           0       -2.529395   -2.067855    3.661844
     48          9           0       -1.546884   -2.937378    4.058501
     49          9           0       -3.265323   -1.774514    4.763486
     50          9           0       -3.321751   -2.736894    2.787797
     51          9           0        0.008586    2.190478    5.271764
     52          9           0        0.123279    3.484110    3.497927
     53          9           0       -1.785668    3.207252    4.542227
     54          9           0       -4.786396   -2.937554   -2.373823
     55          9           0       -6.648281   -1.769363   -2.375099
     56          9           0       -5.237551   -1.591994   -4.042772
     57          9           0       -5.847233    2.584320    0.830395
     58          9           0       -4.645917    3.903583   -0.440400
     59          9           0       -6.515607    3.035643   -1.206361
     60         15           0        1.929366   -1.790440    0.066336
     61          6           0        6.346671   -1.631704   -1.374616
     62          6           0        5.315087   -1.653131   -2.322932
     63          6           0        3.975702   -1.716622   -1.914001
     64          6           0        3.666503   -1.758097   -0.543851
     65          6           0        4.704533   -1.734021    0.411658
     66          6           0        6.039844   -1.675874   -0.005236
     67          1           0        7.391224   -1.582892   -1.699435
     68          1           0        5.548088   -1.619824   -3.391952
     69          1           0        3.170357   -1.742001   -2.651821
     70          1           0        4.467901   -1.753504    1.480624
     71          1           0        6.841093   -1.663983    0.740900
     72         17           0        1.300675   -3.540828   -2.474626
     73         17           0       -0.692399   -1.046104   -3.699201
     74          1           0        4.775957    1.142409   -0.414929
     75          6           0        2.138232    0.042070    3.786492
     76          6           0        2.499186    1.356003    3.474366
     77          6           0        2.601044    1.743330    2.133201
     78          6           0        2.348860    0.847943    1.077554
     79          6           0        2.037864   -0.507102    1.403469
     80          6           0        1.925240   -0.882913    2.755731
     81          1           0        2.033126   -0.273882    4.829107
     82          1           0        2.678588    2.085897    4.269109
     83          1           0        2.879305    2.766017    1.873759
     84          1           0        1.686248   -1.918035    3.011339
     85          6           0        1.346536   -5.910575    2.126572
     86          6           0        0.401418   -4.890001    2.306941
     87          6           0        0.593782   -3.646437    1.695996
     88          6           0        1.745048   -3.400114    0.922736
     89          6           0        2.687577   -4.428491    0.739098
     90          6           0        2.483070   -5.677649    1.340291
     91          1           0        1.193020   -6.888761    2.593260
     92          1           0       -0.491015   -5.053646    2.918247
     93          1           0       -0.150058   -2.859123    1.835645
     94          1           0        3.568316   -4.257850    0.115321
     95          1           0        3.216217   -6.475500    1.184500
     96         46           0        0.389389   -1.522266   -1.612783
 ---------------------------------------------------------------------

 SCF Done:  E(RPBE1PBE) =  -4822.93883255     A.U. after    3 cycles

 The electronic state is 1-A.
 Alpha  occ. eigenvalues -- -101.62959-101.62633 -77.28666 -77.27915 -24.83191
 Alpha  occ. eigenvalues --  -24.82820 -24.82789 -24.82774 -24.82583 -24.82409
 Alpha  occ. eigenvalues --  -24.81987 -24.81894 -24.81532 -24.80907 -24.80704
 Alpha  occ. eigenvalues --  -24.80391 -10.50642 -10.50468 -10.49568 -10.48532
 Alpha  occ. eigenvalues --  -10.30123 -10.30101 -10.29738 -10.29433 -10.29295
 Alpha  occ. eigenvalues --  -10.29282 -10.29011 -10.28819 -10.28733 -10.28636
 Alpha  occ. eigenvalues --  -10.28569 -10.28312 -10.27996 -10.27787 -10.27677
 Alpha  occ. eigenvalues --  -10.27461 -10.26976 -10.26381 -10.26370 -10.26222
 Alpha  occ. eigenvalues --  -10.26000 -10.25938 -10.25724 -10.25705 -10.25627
 Alpha  occ. eigenvalues --  -10.25558 -10.25544 -10.25517 -10.25468 -10.25426
 Alpha  occ. eigenvalues --  -10.25368 -10.25273 -10.25272 -10.25201 -10.25018
 Alpha  occ. eigenvalues --  -10.24932 -10.24769 -10.24680 -10.24618 -10.24572
 Alpha  occ. eigenvalues --  -10.24509 -10.23826  -9.45471  -9.45141  -7.18650
 Alpha  occ. eigenvalues --   -7.18351  -7.18203  -7.18157  -7.17853  -7.17814
 Alpha  occ. eigenvalues --   -6.67891  -6.67060  -4.81509  -4.81427  -4.81212
 Alpha  occ. eigenvalues --   -4.80658  -4.80615  -4.80427  -3.62035  -3.53503
 Alpha  occ. eigenvalues --   -2.26631  -2.22323  -2.22264  -2.21344  -2.21065
 Alpha  occ. eigenvalues --   -2.17735  -1.36449  -1.36286  -1.35424  -1.34340
 Alpha  occ. eigenvalues --   -1.28181  -1.28092  -1.27769  -1.27520  -1.27152
 Alpha  occ. eigenvalues --   -1.26748  -1.26021  -1.25677  -0.95022  -0.94186
 Alpha  occ. eigenvalues --   -0.93678  -0.92133  -0.90961  -0.89932  -0.89397
 Alpha  occ. eigenvalues --   -0.86438  -0.86390  -0.85041  -0.83612  -0.82719
 Alpha  occ. eigenvalues --   -0.82426  -0.81523  -0.79140  -0.78552  -0.78433
 Alpha  occ. eigenvalues --   -0.78092  -0.76445  -0.75854  -0.75743  -0.75150
 Alpha  occ. eigenvalues --   -0.75133  -0.75099  -0.74908  -0.74587  -0.74425
 Alpha  occ. eigenvalues --   -0.74003  -0.72433  -0.69955  -0.68869  -0.68147
 Alpha  occ. eigenvalues --   -0.67429  -0.67167  -0.65710  -0.64861  -0.64475
 Alpha  occ. eigenvalues --   -0.64164  -0.63804  -0.63745  -0.63461  -0.63360
 Alpha  occ. eigenvalues --   -0.63210  -0.63123  -0.62535  -0.62363  -0.62122
 Alpha  occ. eigenvalues --   -0.61265  -0.61073  -0.60142  -0.58562  -0.58483
 Alpha  occ. eigenvalues --   -0.57969  -0.57787  -0.57538  -0.57302  -0.56481
 Alpha  occ. eigenvalues --   -0.56419  -0.56164  -0.54966  -0.54878  -0.54517
 Alpha  occ. eigenvalues --   -0.53881  -0.53227  -0.52254  -0.52198  -0.51352
 Alpha  occ. eigenvalues --   -0.51126  -0.51066  -0.50886  -0.50500  -0.50223
 Alpha  occ. eigenvalues --   -0.49952  -0.49904  -0.49148  -0.48858  -0.48756
 Alpha  occ. eigenvalues --   -0.48615  -0.48413  -0.48093  -0.47988  -0.47763
 Alpha  occ. eigenvalues --   -0.47629  -0.47367  -0.47268  -0.47094  -0.46876
 Alpha  occ. eigenvalues --   -0.46323  -0.46223  -0.45849  -0.45648  -0.45572
 Alpha  occ. eigenvalues --   -0.45545  -0.45478  -0.45378  -0.45272  -0.45047
 Alpha  occ. eigenvalues --   -0.44896  -0.44726  -0.44613  -0.44383  -0.44258
 Alpha  occ. eigenvalues --   -0.44141  -0.44077  -0.44015  -0.43714  -0.43670
 Alpha  occ. eigenvalues --   -0.43349  -0.43281  -0.43064  -0.42333  -0.42106
 Alpha  occ. eigenvalues --   -0.41852  -0.41256  -0.40944  -0.40940  -0.40675
 Alpha  occ. eigenvalues --   -0.40388  -0.40281  -0.39885  -0.39787  -0.39391
 Alpha  occ. eigenvalues --   -0.39148  -0.38713  -0.38481  -0.38147  -0.38052
 Alpha  occ. eigenvalues --   -0.37448  -0.37331  -0.37051  -0.36762  -0.36052
 Alpha  occ. eigenvalues --   -0.34750  -0.33860  -0.33133  -0.32659  -0.32544
 Alpha  occ. eigenvalues --   -0.31800  -0.31211  -0.30849  -0.30385  -0.30106
 Alpha  occ. eigenvalues --   -0.29860  -0.29440  -0.29188  -0.28829  -0.28405
 Alpha  occ. eigenvalues --   -0.28168  -0.28084  -0.27709  -0.27418  -0.27125
 Alpha  occ. eigenvalues --   -0.26814  -0.25979  -0.25516  -0.24892  -0.24707
 Alpha  occ. eigenvalues --   -0.24067  -0.24019
 Alpha virt. eigenvalues --   -0.09666  -0.08337  -0.07822  -0.06828  -0.06012
 Alpha virt. eigenvalues --   -0.05345  -0.04879  -0.04422  -0.03103  -0.02662
 Alpha virt. eigenvalues --   -0.02374  -0.01748  -0.01682  -0.01405  -0.00305

 Mulliken charges:
               1
     1  C   -0.069993
     2  C   -0.019648
     3  C    0.035954
     4  C   -0.080785
     5  C   -0.186692
     6  H    0.125251
     7  H    0.124230
     8  H    0.130476
     9  H    0.138037
    10  H    0.126648
    11  Fe  -0.599632
    12  C   -0.143402
    13  C    0.010470
    14  C    0.383153
    15  C    0.319819
    16  C   -0.120854
    17  H    0.115271
    18  H    0.146214
    19  C   -0.177843
    20  P    0.106210
    21  H    0.125773
    22  C   -0.457357
    23  H    0.150921
    24  H    0.148164
    25  H    0.185765
    26  C   -0.269084
    27  C    0.120901
    28  C   -0.301622
    29  C    0.148689
    30  C   -0.369543
    31  C    0.155058
    32  H    0.169054
    33  C    0.434639
    34  H    0.219729
    35  H    0.166958
    36  C    0.432616
    37  C   -0.305722
    38  C    0.085263
    39  C   -0.231199
    40  C    0.239462
    41  C   -0.377106
    42  C    0.139135
    43  H    0.159007
    44  C    0.451495
    45  H    0.183798
    46  H    0.210886
    47  C    0.459765
    48  F   -0.162811
    49  F   -0.155746
    50  F   -0.158019
    51  F   -0.168146
    52  F   -0.167514
    53  F   -0.151996
    54  F   -0.156616
    55  F   -0.166127
    56  F   -0.149155
    57  F   -0.156433
    58  F   -0.166607
    59  F   -0.158817
    60  P    0.242621
    61  C   -0.083612
    62  C   -0.175239
    63  C   -0.036983
    64  C    0.007174
    65  C   -0.167976
    66  C   -0.155392
    67  H    0.124372
    68  H    0.127951
    69  H    0.193137
    70  H    0.137446
    71  H    0.124326
    72  Cl  -0.397390
    73  Cl  -0.415287
    74  H    0.140056
    75  C   -0.200523
    76  C   -0.084916
    77  C   -0.255313
    78  C   -0.117820
    79  C   -0.211980
    80  C   -0.093265
    81  H    0.124545
    82  H    0.127419
    83  H    0.096612
    84  H    0.168240
    85  C   -0.077178
    86  C   -0.175634
    87  C   -0.172392
    88  C    0.130633
    89  C   -0.113809
    90  C   -0.148857
    91  H    0.125370
    92  H    0.128861
    93  H    0.080886
    94  H    0.157299
    95  H    0.124804
    96  Pd   0.201474
 Sum of Mulliken charges =  -0.00000

 Dipole moment (field-independent basis, Debye):
    X=              6.7735    Y=              4.5740    Z=              6.3661  Tot=             10.3600
 Quadrupole moment (field-independent basis, Debye-Ang):
   XX=           -394.6187   YY=           -423.7012   ZZ=           -427.9270
   XY=             -0.5673   XZ=             -5.5032   YZ=            -33.1018

 Summary of Natural Population Analysis:

                                       Natural Population
                Natural  -----------------------------------------------
    Atom  No    Charge         Core      Valence    Rydberg      Total
 -----------------------------------------------------------------------
      C    1   -0.20894      1.99876     4.18466    0.02552     6.20894
      C    2   -0.20226      1.99877     4.17898    0.02451     6.20226
      C    3   -0.20259      1.99876     4.17849    0.02534     6.20259
      C    4   -0.21330      1.99875     4.18966    0.02490     6.21330
      C    5   -0.21642      1.99876     4.19331    0.02436     6.21642
      H    6    0.24950      0.00000     0.74920    0.00131     0.75050
      H    7    0.24936      0.00000     0.74932    0.00132     0.75064
      H    8    0.24820      0.00000     0.75048    0.00132     0.75180
      H    9    0.24537      0.00000     0.75332    0.00131     0.75463
      H   10    0.24267      0.00000     0.75584    0.00149     0.75733
     Fe   11   -0.30841     17.99251     8.27833    0.03757    26.30841
      C   12   -0.19643      1.99877     4.17447    0.02319     6.19643
      C   13   -0.17915      1.99868     4.15459    0.02588     6.17915
      C   14   -0.06353      1.99859     4.03016    0.03478     6.06353
      C   15   -0.01480      1.99857     3.97978    0.03645     6.01480
      C   16   -0.18846      1.99869     4.16731    0.02246     6.18846
      H   17    0.25020      0.00000     0.74824    0.00156     0.74980
      H   18    0.25689      0.00000     0.74138    0.00172     0.74311
      C   19   -0.50873      1.99926     4.48019    0.02928     6.50873
      P   20    1.18352      9.99573     3.77015    0.05060    13.81648
      H   21    0.23664      0.00000     0.76083    0.00253     0.76336
      C   22   -0.63226      1.99944     4.61936    0.01347     6.63226
      H   23    0.22475      0.00000     0.77427    0.00098     0.77525
      H   24    0.22607      0.00000     0.77279    0.00114     0.77393
      H   25    0.25830      0.00000     0.74059    0.00111     0.74170
      C   26   -0.13747      1.99907     4.12220    0.01619     6.13747
      C   27   -0.14400      1.99898     4.12034    0.02468     6.14400
      C   28   -0.13078      1.99903     4.11341    0.01834     6.13078
      C   29   -0.33697      1.99901     4.30367    0.03429     6.33697
      C   30   -0.16631      1.99902     4.14714    0.02015     6.16631
      C   31   -0.15392      1.99897     4.12986    0.02509     6.15392
      H   32    0.25617      0.00000     0.74251    0.00132     0.74383
      C   33    0.95002      1.99914     3.00300    0.04784     5.04998
      H   34    0.27796      0.00000     0.72057    0.00147     0.72204
      H   35    0.23612      0.00000     0.76191    0.00197     0.76388
      C   36    0.95098      1.99913     3.00254    0.04736     5.04902
      C   37   -0.14287      1.99906     4.12792    0.01589     6.14287
      C   38   -0.13904      1.99895     4.11456    0.02553     6.13904
      C   39   -0.16490      1.99900     4.14580    0.02010     6.16490
      C   40   -0.32822      1.99902     4.29286    0.03634     6.32822
      C   41   -0.17289      1.99901     4.15470    0.01919     6.17289
      C   42   -0.14499      1.99896     4.12086    0.02517     6.14499
      H   43    0.25448      0.00000     0.74420    0.00132     0.74552
      C   44    0.95234      1.99910     3.00174    0.04681     5.04766
      H   45    0.24246      0.00000     0.75538    0.00216     0.75754
      H   46    0.25377      0.00000     0.74445    0.00179     0.74623
      C   47    0.95076      1.99912     3.00306    0.04707     5.04924
      F   48   -0.31859      1.99993     7.31004    0.00863     9.31859
      F   49   -0.30588      1.99992     7.29750    0.00846     9.30588
      F   50   -0.30450      1.99992     7.29625    0.00833     9.30450
      F   51   -0.31290      1.99992     7.30490    0.00807     9.31290
      F   52   -0.31455      1.99992     7.30666    0.00797     9.31455
      F   53   -0.30529      1.99992     7.29746    0.00791     9.30529
      F   54   -0.30539      1.99992     7.29681    0.00866     9.30539
      F   55   -0.31411      1.99993     7.30572    0.00847     9.31411
      F   56   -0.30294      1.99992     7.29452    0.00850     9.30294
      F   57   -0.30991      1.99992     7.30167    0.00831     9.30991
      F   58   -0.31441      1.99993     7.30624    0.00825     9.31441
      F   59   -0.30775      1.99992     7.29931    0.00851     9.30775
      P   60    1.20114      9.99557     3.74822    0.05507    13.79886
      C   61   -0.19688      1.99922     4.17989    0.01778     6.19688
      C   62   -0.21286      1.99921     4.19613    0.01752     6.21286
      C   63   -0.16571      1.99908     4.14699    0.01964     6.16571
      C   64   -0.35659      1.99900     4.32106    0.03653     6.35659
      C   65   -0.20903      1.99908     4.18956    0.02038     6.20903
      C   66   -0.22520      1.99921     4.20764    0.01835     6.22520
      H   67    0.22192      0.00000     0.77694    0.00114     0.77808
      H   68    0.22644      0.00000     0.77236    0.00120     0.77356
      H   69    0.26100      0.00000     0.73682    0.00217     0.73900
      H   70    0.22878      0.00000     0.76913    0.00208     0.77122
      H   71    0.22360      0.00000     0.77514    0.00127     0.77640
     Cl   72   -0.39623      9.99964     7.38769    0.00890    17.39623
     Cl   73   -0.43058      9.99966     7.42209    0.00883    17.43058
      H   74    0.25844      0.00000     0.73938    0.00218     0.74156
      C   75   -0.20762      1.99920     4.19031    0.01811     6.20762
      C   76   -0.19764      1.99920     4.18038    0.01805     6.19764
      C   77   -0.20371      1.99908     4.18677    0.01786     6.20371
      C   78   -0.02704      1.99892     4.00302    0.02510     6.02704
      C   79   -0.32699      1.99893     4.29195    0.03610     6.32699
      C   80   -0.21447      1.99908     4.19518    0.02020     6.21447
      H   81    0.22913      0.00000     0.76967    0.00120     0.77087
      H   82    0.23071      0.00000     0.76806    0.00123     0.76929
      H   83    0.23037      0.00000     0.76739    0.00224     0.76963
      H   84    0.24079      0.00000     0.75689    0.00232     0.75921
      C   85   -0.19358      1.99922     4.17660    0.01777     6.19358
      C   86   -0.20763      1.99920     4.19102    0.01741     6.20763
      C   87   -0.20847      1.99910     4.19075    0.01862     6.20847
      C   88   -0.35796      1.99899     4.32427    0.03469     6.35796
      C   89   -0.17718      1.99911     4.15897    0.01911     6.17718
      C   90   -0.20349      1.99921     4.18678    0.01750     6.20349
      H   91    0.22258      0.00000     0.77627    0.00115     0.77742
      H   92    0.22959      0.00000     0.76913    0.00127     0.77041
      H   93    0.21930      0.00000     0.77921    0.00149     0.78070
      H   94    0.23867      0.00000     0.75971    0.00162     0.76133
      H   95    0.22418      0.00000     0.77461    0.00121     0.77582
     Pd   96   -0.15047     35.98781    10.13296    0.02971    46.15047
 =======================================================================
   * Total *   -0.00000    209.92439   340.56437    1.51124   552.00000

 Normal termination of Gaussian 09 at Mon Dec  6 18:43:50 2021.
