 Gaussian 09, Revision E.01,

 ----------------------------------------------------------------------
 # PBE1PBE gen pseudo=read int=(grid=ultrafine) empiricaldispersion=GD3
 BJ nmr=giao
 ----------------------------------------------------------------------

 ------------------
 W001_1_6_F_3 title
 ------------------
 Symbolic Z-matrix:
 Charge =  0 Multiplicity = 1

 SCF Done:  E(RPBE1PBE) =  -3774.74869623     A.U. after   25 cycles

      1  C    Isotropic =   108.0225   Anisotropy =    96.5792

      2  C    Isotropic =   112.0705   Anisotropy =    89.4110

      3  C    Isotropic =   113.1430   Anisotropy =    86.8230

      4  C    Isotropic =   112.3567   Anisotropy =    89.0689

      5  C    Isotropic =   110.0893   Anisotropy =    93.0283

      6  H    Isotropic =    27.4300   Anisotropy =     6.1399

      7  H    Isotropic =    27.6419   Anisotropy =     7.0448

      8  H    Isotropic =    27.2838   Anisotropy =     4.6129

      9  H    Isotropic =    26.9438   Anisotropy =     6.0286

     10  H    Isotropic =    27.6334   Anisotropy =     3.4564

     11  Fe   Isotropic = -6218.8006   Anisotropy =  8341.7081

     12  C    Isotropic =   113.8980   Anisotropy =    90.5442

     13  C    Isotropic =   103.5824   Anisotropy =    89.2132

     14  C    Isotropic =    89.9094   Anisotropy =    96.4072

     15  C    Isotropic =    93.7613   Anisotropy =    78.4700

     16  C    Isotropic =   113.8592   Anisotropy =    82.9799

     17  H    Isotropic =    28.1899   Anisotropy =     6.6549

     18  H    Isotropic =    27.4138   Anisotropy =     3.4210

     19  C    Isotropic =   154.9668   Anisotropy =    22.0042

     20  P    Isotropic =   298.4994   Anisotropy =    85.3364

     21  H    Isotropic =    27.0220   Anisotropy =     4.0429

     22  C    Isotropic =   168.4805   Anisotropy =    10.1804

     23  H    Isotropic =    30.0844   Anisotropy =    10.3192

     24  H    Isotropic =    29.2029   Anisotropy =     8.0374

     25  H    Isotropic =    30.1883   Anisotropy =     7.5635

     26  C    Isotropic =    55.4356   Anisotropy =   189.9784

     27  C    Isotropic =    45.8530   Anisotropy =   162.7000

     28  C    Isotropic =    43.8832   Anisotropy =   183.6157

     29  C    Isotropic =    34.0108   Anisotropy =   213.9889

     30  C    Isotropic =    38.3959   Anisotropy =   198.0798

     31  C    Isotropic =    46.7473   Anisotropy =   162.1928

     32  H    Isotropic =    23.3274   Anisotropy =    10.0052

     33  C    Isotropic =    48.9124   Anisotropy =    14.0103

     34  H    Isotropic =    22.8596   Anisotropy =    12.7263

     35  H    Isotropic =    23.5855   Anisotropy =    16.1951

     36  C    Isotropic =    48.8031   Anisotropy =    15.1481

     37  C    Isotropic =    57.5508   Anisotropy =   187.5181

     38  C    Isotropic =    46.2695   Anisotropy =   168.7337

     39  C    Isotropic =    52.3634   Anisotropy =   203.3071

     40  C    Isotropic =    30.7330   Anisotropy =   220.7714

     41  C    Isotropic =    47.6602   Anisotropy =   189.5017

     42  C    Isotropic =    47.9587   Anisotropy =   162.6522

     43  H    Isotropic =    23.7583   Anisotropy =     9.3203

     44  C    Isotropic =    48.2875   Anisotropy =    13.5324

     45  H    Isotropic =    23.4590   Anisotropy =     8.9168

     46  H    Isotropic =    23.7221   Anisotropy =    11.8451

     47  C    Isotropic =    48.5646   Anisotropy =    11.9725

     48  F    Isotropic =   247.0332   Anisotropy =   137.4305

     49  F    Isotropic =   248.1258   Anisotropy =   132.9163

     50  F    Isotropic =   217.9129   Anisotropy =   152.5217

     51  F    Isotropic =   229.8193   Anisotropy =   145.5750

     52  F    Isotropic =   251.4391   Anisotropy =   116.8719

     53  F    Isotropic =   222.7929   Anisotropy =   150.9182

     54  F    Isotropic =   244.0263   Anisotropy =   137.5925

     55  F    Isotropic =   247.8527   Anisotropy =   139.8411

     56  F    Isotropic =   223.0670   Anisotropy =   143.4253

     57  F    Isotropic =   247.6788   Anisotropy =   138.6256

     58  F    Isotropic =   219.5177   Anisotropy =   147.8755

     59  F    Isotropic =   245.8679   Anisotropy =   138.9607

     60  P    Isotropic =   288.4118   Anisotropy =    37.9205

     61  C    Isotropic =    50.7097   Anisotropy =   190.8889

     62  C    Isotropic =    51.2199   Anisotropy =   186.9214

     63  C    Isotropic =    37.9463   Anisotropy =   199.8724

     64  C    Isotropic =    39.7769   Anisotropy =   207.7085

     65  C    Isotropic =    40.0060   Anisotropy =   196.1363

     66  C    Isotropic =    52.3900   Anisotropy =   187.4845

     67  H    Isotropic =    23.8754   Anisotropy =     2.8124

     68  H    Isotropic =    24.1473   Anisotropy =     6.8859

     69  H    Isotropic =    24.4640   Anisotropy =    13.4467

     70  H    Isotropic =    23.9104   Anisotropy =     7.3309

     71  H    Isotropic =    23.9872   Anisotropy =     5.5397

     72  H    Isotropic =    29.3574   Anisotropy =     6.0620

     73  C    Isotropic =    51.0603   Anisotropy =   193.4474

     74  C    Isotropic =    51.0912   Anisotropy =   190.5576

     75  C    Isotropic =    43.0016   Anisotropy =   170.3594

     76  C    Isotropic =    40.5533   Anisotropy =   193.3267

     77  C    Isotropic =    29.8830   Anisotropy =   211.0657

     78  C    Isotropic =    51.0726   Anisotropy =   200.5582

     79  H    Isotropic =    24.4862   Anisotropy =     3.7047

     80  H    Isotropic =    23.8338   Anisotropy =     2.9532

     81  H    Isotropic =    22.8873   Anisotropy =     7.5649

     82  H    Isotropic =    24.1643   Anisotropy =     8.5236

     83  C    Isotropic =    53.4554   Anisotropy =   183.9299

     84  C    Isotropic =    52.1646   Anisotropy =   187.3985

     85  C    Isotropic =    46.9670   Anisotropy =   188.1078

     86  C    Isotropic =    41.5065   Anisotropy =   192.2533

     87  C    Isotropic =    48.5284   Anisotropy =   187.5475

     88  C    Isotropic =    50.8652   Anisotropy =   185.3929

     89  H    Isotropic =    23.9852   Anisotropy =     4.5656

     90  H    Isotropic =    23.5868   Anisotropy =     9.2093

     91  H    Isotropic =    23.7471   Anisotropy =     8.6937

     92  H    Isotropic =    24.7117   Anisotropy =    14.9752

     93  H    Isotropic =    24.0866   Anisotropy =     6.6793

 Normal termination of Gaussian 09 at Mon Dec  6 16:01:49 2021.
 Gaussian 09:  ES64L-G09RevE.01 30-Nov-2015

 ----------------------------------------------------------------------
 # PBE1PBE gen pseudo=read int=(grid=ultrafine) empiricaldispersion=GD3
 BJ pop=nbo guess=read geom=check
 ----------------------------------------------------------------------

 ------------------
 W001_1_6_F_3 title
 ------------------
 Structure from the checkpoint file:  "W001_1_6_F_3_SPE_NoPd.chk"
 Charge =  0 Multiplicity = 1

                         Standard orientation:
 ---------------------------------------------------------------------
 Center     Atomic      Atomic             Coordinates (Angstroms)
 Number     Number       Type             X           Y           Z
 ---------------------------------------------------------------------
      1          6           0       -2.129693   -4.758122    0.230421
      2          6           0       -3.194659   -5.112706   -0.666149
      3          6           0       -4.419812   -4.586153   -0.130399
      4          6           0       -4.111989   -3.903489    1.096152
      5          6           0       -2.693952   -4.014053    1.320291
      6          1           0       -3.084995   -5.642009   -1.613344
      7          1           0       -5.402186   -4.646735   -0.599889
      8          1           0       -4.825943   -3.372449    1.726891
      9          1           0       -2.135607   -3.596143    2.159574
     10          1           0       -1.072290   -4.988040    0.093018
     11         26           0       -3.081398   -3.077309   -0.469257
     12          6           0       -3.778517   -2.096944   -2.125319
     13          6           0       -3.930614   -1.292080   -0.954625
     14          6           0       -2.629673   -1.078038   -0.365948
     15          6           0       -1.661393   -1.813971   -1.175176
     16          6           0       -2.390221   -2.408591   -2.270511
     17          1           0       -4.583728   -2.450330   -2.769610
     18          1           0       -1.960568   -3.036818   -3.048889
     19          6           0       -0.181488   -2.030666   -0.924170
     20         15           0        0.709930   -0.379136   -1.050454
     21          1           0       -0.044117   -2.403510    0.105900
     22          6           0        0.435744   -3.044547   -1.904399
     23          1           0        1.469698   -3.293302   -1.623091
     24          1           0       -0.159081   -3.972599   -1.884038
     25          1           0        0.448390   -2.642662   -2.930785
     26          6           0        5.275483   -1.130968   -1.599544
     27          6           0        4.619139   -0.194128   -2.405576
     28          6           0        3.236668    0.015592   -2.283462
     29          6           0        2.504075   -0.717283   -1.337704
     30          6           0        3.165363   -1.639174   -0.506054
     31          6           0        4.541781   -1.853303   -0.648014
     32          1           0        6.350902   -1.292649   -1.705212
     33          6           0        5.387803    0.561916   -3.465472
     34          1           0        2.727613    0.730549   -2.934150
     35          1           0        2.618555   -2.192701    0.263786
     36          6           0        5.247454   -2.804989    0.286764
     37          6           0        1.493858    1.268375    3.251442
     38          6           0        0.832284    0.042762    3.105263
     39          6           0        0.556172   -0.473083    1.832655
     40          6           0        0.933292    0.237960    0.683803
     41          6           0        1.616097    1.458793    0.829922
     42          6           0        1.886937    1.971568    2.105616
     43          1           0        1.704828    1.670376    4.245816
     44          6           0        0.446496   -0.730454    4.343459
     45          1           0        0.022364   -1.421270    1.760846
     46          1           0        1.949773    2.008684   -0.056471
     47          6           0        2.539541    3.325996    2.242994
     48          9           0        3.248973    3.431043    3.394910
     49          9           0        3.371443    3.594716    1.206094
     50          9           0        1.593729    4.317794    2.265287
     51          9           0       -0.210789    0.063259    5.235687
     52          9           0       -0.365225   -1.787705    4.059571
     53          9           0        1.542542   -1.219881    4.981178
     54          9           0        4.902813    1.820103   -3.624962
     55          9           0        6.708455    0.662065   -3.145474
     56          9           0        5.309587   -0.062472   -4.668942
     57          9           0        6.340828   -3.363416   -0.294377
     58          9           0        5.669946   -2.167932    1.414292
     59          9           0        4.424180   -3.815306    0.684409
     60         15           0       -1.885789    1.915855   -1.120009
     61          6           0       -6.289345    1.409534   -2.522331
     62          6           0       -5.996083    1.943640   -1.257406
     63          6           0       -4.664250    2.099254   -0.854630
     64          6           0       -3.615629    1.728651   -1.723045
     65          6           0       -3.911123    1.196855   -2.989733
     66          6           0       -5.247371    1.039372   -3.383253
     67          1           0       -7.331353    1.285191   -2.834964
     68          1           0       -6.805297    2.239082   -0.581574
     69          1           0       -4.438906    2.502347    0.138243
     70          1           0       -3.097288    0.916841   -3.662690
     71          1           0       -5.469721    0.623248   -4.370979
     72          1           0       -4.859628   -0.874421   -0.566969
     73          6           0       -2.221524    1.594110    3.006118
     74          6           0       -2.639455    0.272805    3.189459
     75          6           0       -2.743956   -0.577537    2.082610
     76          6           0       -2.438562   -0.145132    0.778969
     77          6           0       -2.068787    1.221388    0.591950
     78          6           0       -1.954210    2.064720    1.713642
     79          1           0       -2.113699    2.267945    3.861828
     80          1           0       -2.861528   -0.104978    4.191711
     81          1           0       -3.066387   -1.612143    2.210070
     82          1           0       -1.670446    3.111012    1.576971
     83          6           0       -1.134987    6.479234   -0.705851
     84          6           0       -0.240858    5.561122   -0.135804
     85          6           0       -0.484079    4.188429   -0.251010
     86          6           0       -1.636479    3.719387   -0.911303
     87          6           0       -2.527636    4.643441   -1.487168
     88          6           0       -2.271926    6.017248   -1.382718
     89          1           0       -0.941303    7.553781   -0.628089
     90          1           0        0.651055    5.903738    0.397132
     91          1           0        0.220389    3.479778    0.189668
     92          1           0       -3.408048    4.289242   -2.028773
     93          1           0       -2.965057    6.729321   -1.841915
 ---------------------------------------------------------------------

 SCF Done:  E(RPBE1PBE) =  -3774.74869622     A.U. after    4 cycles

 The electronic state is 1-A.
 Alpha  occ. eigenvalues --  -77.22204 -77.20676 -24.81566 -24.81564 -24.81544
 Alpha  occ. eigenvalues --  -24.81528 -24.81461 -24.81379 -24.81276 -24.81171
 Alpha  occ. eigenvalues --  -24.81150 -24.81073 -24.81066 -24.81005 -10.49101
 Alpha  occ. eigenvalues --  -10.48995 -10.48988 -10.48941 -10.28537 -10.28512
 Alpha  occ. eigenvalues --  -10.28135 -10.28072 -10.27973 -10.27625 -10.27606
 Alpha  occ. eigenvalues --  -10.27460 -10.27427 -10.27288 -10.27059 -10.26968
 Alpha  occ. eigenvalues --  -10.26878 -10.26184 -10.25627 -10.25565 -10.25268
 Alpha  occ. eigenvalues --  -10.24723 -10.24677 -10.24655 -10.24640 -10.24600
 Alpha  occ. eigenvalues --  -10.24599 -10.24588 -10.24556 -10.24383 -10.24356
 Alpha  occ. eigenvalues --  -10.24208 -10.24167 -10.24056 -10.24038 -10.23980
 Alpha  occ. eigenvalues --  -10.23878 -10.23802 -10.23691 -10.23662 -10.23631
 Alpha  occ. eigenvalues --  -10.23556 -10.23442 -10.23397 -10.23380 -10.23310
 Alpha  occ. eigenvalues --   -6.61804  -6.60279  -4.75412  -4.75354  -4.74920
 Alpha  occ. eigenvalues --   -4.73876  -4.73856  -4.73418  -3.60995  -2.25598
 Alpha  occ. eigenvalues --   -2.21279  -2.21224  -1.35001  -1.34962  -1.34949
 Alpha  occ. eigenvalues --   -1.34861  -1.26815  -1.26753  -1.26575  -1.26568
 Alpha  occ. eigenvalues --   -1.26378  -1.26297  -1.26220  -1.26158  -0.93337
 Alpha  occ. eigenvalues --   -0.93006  -0.92697  -0.90997  -0.89084  -0.88471
 Alpha  occ. eigenvalues --   -0.88062  -0.84863  -0.84534  -0.84458  -0.82034
 Alpha  occ. eigenvalues --   -0.81637  -0.80203  -0.79514  -0.77665  -0.77431
 Alpha  occ. eigenvalues --   -0.76804  -0.76770  -0.75019  -0.74772  -0.74216
 Alpha  occ. eigenvalues --   -0.74170  -0.74161  -0.73955  -0.73326  -0.73103
 Alpha  occ. eigenvalues --   -0.70264  -0.67296  -0.67270  -0.67100  -0.66810
 Alpha  occ. eigenvalues --   -0.66209  -0.64099  -0.63353  -0.63074  -0.62651
 Alpha  occ. eigenvalues --   -0.62354  -0.62245  -0.62241  -0.62190  -0.61953
 Alpha  occ. eigenvalues --   -0.61919  -0.61906  -0.61835  -0.61771  -0.61554
 Alpha  occ. eigenvalues --   -0.60345  -0.58255  -0.57529  -0.57039  -0.56686
 Alpha  occ. eigenvalues --   -0.56329  -0.56291  -0.56027  -0.55745  -0.54928
 Alpha  occ. eigenvalues --   -0.54616  -0.54351  -0.53658  -0.53047  -0.52277
 Alpha  occ. eigenvalues --   -0.51702  -0.51340  -0.50388  -0.49873  -0.49843
 Alpha  occ. eigenvalues --   -0.49681  -0.49631  -0.49587  -0.49567  -0.49285
 Alpha  occ. eigenvalues --   -0.49195  -0.48616  -0.48104  -0.47439  -0.47293
 Alpha  occ. eigenvalues --   -0.46809  -0.46746  -0.46607  -0.46439  -0.46389
 Alpha  occ. eigenvalues --   -0.46169  -0.46141  -0.46065  -0.45808  -0.45639
 Alpha  occ. eigenvalues --   -0.45579  -0.45409  -0.45145  -0.44325  -0.44301
 Alpha  occ. eigenvalues --   -0.44212  -0.44149  -0.44132  -0.43989  -0.43910
 Alpha  occ. eigenvalues --   -0.43819  -0.43758  -0.43577  -0.43372  -0.43119
 Alpha  occ. eigenvalues --   -0.42862  -0.42726  -0.42664  -0.42328  -0.42160
 Alpha  occ. eigenvalues --   -0.41917  -0.41739  -0.41470  -0.40910  -0.40035
 Alpha  occ. eigenvalues --   -0.39999  -0.39657  -0.39527  -0.39405  -0.39226
 Alpha  occ. eigenvalues --   -0.39017  -0.38792  -0.38158  -0.37600  -0.37297
 Alpha  occ. eigenvalues --   -0.36512  -0.36386  -0.36296  -0.35964  -0.35582
 Alpha  occ. eigenvalues --   -0.34121  -0.33846  -0.32392  -0.31103  -0.30642
 Alpha  occ. eigenvalues --   -0.30186  -0.29298  -0.29014  -0.28797  -0.28131
 Alpha  occ. eigenvalues --   -0.27823  -0.27348  -0.26973  -0.26625  -0.26392
 Alpha  occ. eigenvalues --   -0.26269  -0.25952  -0.25411  -0.23023  -0.22927
 Alpha  occ. eigenvalues --   -0.20790
 Alpha virt. eigenvalues --   -0.06934  -0.06669  -0.05845  -0.04901  -0.03798
 Alpha virt. eigenvalues --   -0.03181  -0.02773  -0.01937  -0.01235  -0.01061
 Alpha virt. eigenvalues --   -0.00951  -0.00641  -0.00545   0.01208   0.01785

 Mulliken charges:
               1
     1  C   -0.075146
     2  C   -0.020650
     3  C    0.030756
     4  C   -0.104982
     5  C   -0.196083
     6  H    0.118418
     7  H    0.121221
     8  H    0.130772
     9  H    0.141142
    10  H    0.121901
    11  Fe  -0.591851
    12  C   -0.128496
    13  C    0.007915
    14  C    0.419832
    15  C    0.358755
    16  C   -0.194992
    17  H    0.109628
    18  H    0.138127
    19  C   -0.222615
    20  P    0.071948
    21  H    0.120041
    22  C   -0.458531
    23  H    0.157604
    24  H    0.152129
    25  H    0.146215
    26  C   -0.292628
    27  C    0.166597
    28  C   -0.370344
    29  C    0.223651
    30  C   -0.373898
    31  C    0.175192
    32  H    0.168218
    33  C    0.441768
    34  H    0.157640
    35  H    0.169898
    36  C    0.435564
    37  C   -0.325519
    38  C    0.093111
    39  C   -0.229034
    40  C    0.201974
    41  C   -0.349349
    42  C    0.143776
    43  H    0.152050
    44  C    0.450119
    45  H    0.173968
    46  H    0.168724
    47  C    0.463518
    48  F   -0.158948
    49  F   -0.163655
    50  F   -0.164290
    51  F   -0.169844
    52  F   -0.169226
    53  F   -0.156527
    54  F   -0.159982
    55  F   -0.163933
    56  F   -0.156061
    57  F   -0.161428
    58  F   -0.155606
    59  F   -0.166386
    60  P    0.096806
    61  C   -0.095914
    62  C   -0.142254
    63  C   -0.167884
    64  C    0.073892
    65  C   -0.111625
    66  C   -0.147627
    67  H    0.120993
    68  H    0.121230
    69  H    0.139042
    70  H    0.125205
    71  H    0.117544
    72  H    0.138129
    73  C   -0.206982
    74  C   -0.090463
    75  C   -0.250217
    76  C   -0.048842
    77  C   -0.266900
    78  C   -0.103766
    79  H    0.116316
    80  H    0.119433
    81  H    0.090593
    82  H    0.153468
    83  C   -0.082383
    84  C   -0.185583
    85  C   -0.148810
    86  C    0.076167
    87  C   -0.136434
    88  C   -0.162693
    89  H    0.118672
    90  H    0.124326
    91  H    0.097457
    92  H    0.149677
    93  H    0.117259
 Sum of Mulliken charges =  -0.00000

 Dipole moment (field-independent basis, Debye):
    X=             -5.2239    Y=             -1.3035    Z=             -1.8005  Tot=              5.6772
 Quadrupole moment (field-independent basis, Debye-Ang):
   XX=           -365.1176   YY=           -367.9300   ZZ=           -372.3141
   XY=             -0.3350   XZ=              8.1626   YZ=             13.3447

 Summary of Natural Population Analysis:

                                       Natural Population
                Natural  -----------------------------------------------
    Atom  No    Charge         Core      Valence    Rydberg      Total
 -----------------------------------------------------------------------
      C    1   -0.21140      1.99876     4.18703    0.02560     6.21140
      C    2   -0.20536      1.99877     4.18209    0.02450     6.20536
      C    3   -0.20529      1.99876     4.18123    0.02529     6.20529
      C    4   -0.21381      1.99875     4.19017    0.02488     6.21381
      C    5   -0.21583      1.99876     4.19260    0.02448     6.21583
      H    6    0.24604      0.00000     0.75263    0.00133     0.75396
      H    7    0.24737      0.00000     0.75132    0.00132     0.75263
      H    8    0.24848      0.00000     0.75019    0.00133     0.75152
      H    9    0.24771      0.00000     0.75097    0.00132     0.75229
      H   10    0.24111      0.00000     0.75742    0.00148     0.75889
     Fe   11   -0.31354     17.99260     8.28312    0.03782    26.31354
      C   12   -0.20068      1.99877     4.17867    0.02324     6.20068
      C   13   -0.17993      1.99868     4.15516    0.02609     6.17993
      C   14   -0.04694      1.99859     4.01328    0.03508     6.04694
      C   15   -0.00715      1.99856     3.97381    0.03478     6.00715
      C   16   -0.20577      1.99870     4.18399    0.02308     6.20577
      H   17    0.24594      0.00000     0.75250    0.00156     0.75406
      H   18    0.24569      0.00000     0.75253    0.00177     0.75431
      C   19   -0.49533      1.99928     4.47072    0.02532     6.49533
      P   20    0.84987      9.99802     4.12452    0.02759    14.15013
      H   21    0.22821      0.00000     0.76877    0.00302     0.77179
      C   22   -0.61895      1.99945     4.60656    0.01294     6.61895
      H   23    0.22630      0.00000     0.77274    0.00096     0.77370
      H   24    0.22619      0.00000     0.77258    0.00123     0.77381
      H   25    0.21876      0.00000     0.77995    0.00129     0.78124
      C   26   -0.14878      1.99907     4.13329    0.01642     6.14878
      C   27   -0.14500      1.99898     4.12160    0.02442     6.14500
      C   28   -0.16104      1.99904     4.14351    0.01848     6.16104
      C   29   -0.31095      1.99906     4.28007    0.03183     6.31095
      C   30   -0.16215      1.99902     4.14391    0.01922     6.16215
      C   31   -0.15072      1.99898     4.12656    0.02519     6.15072
      H   32    0.25479      0.00000     0.74387    0.00134     0.74521
      C   33    0.94923      1.99914     3.00376    0.04787     5.05077
      H   34    0.24968      0.00000     0.74895    0.00137     0.75032
      H   35    0.23688      0.00000     0.76103    0.00208     0.76312
      C   36    0.94990      1.99912     3.00369    0.04729     5.05010
      C   37   -0.15757      1.99906     4.14242    0.01609     6.15757
      C   38   -0.13981      1.99895     4.11530    0.02556     6.13981
      C   39   -0.17577      1.99899     4.15703    0.01975     6.17577
      C   40   -0.29168      1.99904     4.25934    0.03331     6.29168
      C   41   -0.18832      1.99902     4.16973    0.01957     6.18832
      C   42   -0.14756      1.99896     4.12360    0.02501     6.14756
      H   43    0.25037      0.00000     0.74829    0.00134     0.74963
      C   44    0.95277      1.99910     3.00140    0.04673     5.04723
      H   45    0.23824      0.00000     0.75946    0.00230     0.76176
      H   46    0.24527      0.00000     0.75277    0.00196     0.75473
      C   47    0.95116      1.99911     3.00272    0.04700     5.04884
      F   48   -0.30843      1.99992     7.30009    0.00842     9.30843
      F   49   -0.30846      1.99992     7.30028    0.00825     9.30846
      F   50   -0.31998      1.99993     7.31146    0.00859     9.31998
      F   51   -0.31436      1.99992     7.30637    0.00806     9.31436
      F   52   -0.31591      1.99992     7.30804    0.00794     9.31591
      F   53   -0.30892      1.99992     7.30114    0.00786     9.30892
      F   54   -0.30895      1.99992     7.30043    0.00860     9.30895
      F   55   -0.31251      1.99993     7.30408    0.00850     9.31251
      F   56   -0.30883      1.99992     7.30049    0.00842     9.30883
      F   57   -0.30980      1.99992     7.30140    0.00848     9.30980
      F   58   -0.30906      1.99992     7.30084    0.00830     9.30906
      F   59   -0.31387      1.99993     7.30570    0.00824     9.31387
      P   60    0.84415      9.99773     4.12837    0.02976    14.15585
      C   61   -0.20943      1.99922     4.19218    0.01804     6.20943
      C   62   -0.22180      1.99921     4.20454    0.01805     6.22180
      C   63   -0.20588      1.99908     4.18707    0.01973     6.20588
      C   64   -0.32189      1.99904     4.28989    0.03296     6.32189
      C   65   -0.19346      1.99910     4.17435    0.02001     6.19346
      C   66   -0.21737      1.99921     4.20045    0.01771     6.21737
      H   67    0.21968      0.00000     0.77915    0.00117     0.78032
      H   68    0.22029      0.00000     0.77841    0.00131     0.77971
      H   69    0.22996      0.00000     0.76773    0.00231     0.77004
      H   70    0.22900      0.00000     0.76927    0.00173     0.77100
      H   71    0.21975      0.00000     0.77899    0.00127     0.78025
      H   72    0.25773      0.00000     0.74013    0.00214     0.74227
      C   73   -0.20607      1.99919     4.18863    0.01825     6.20607
      C   74   -0.21556      1.99920     4.19800    0.01836     6.21556
      C   75   -0.20331      1.99908     4.18647    0.01776     6.20331
      C   76   -0.05194      1.99891     4.02768    0.02535     6.05194
      C   77   -0.27961      1.99894     4.24831    0.03235     6.27961
      C   78   -0.22981      1.99909     4.21043    0.02030     6.22981
      H   79    0.22391      0.00000     0.77486    0.00123     0.77609
      H   80    0.22634      0.00000     0.77240    0.00126     0.77366
      H   81    0.22445      0.00000     0.77333    0.00222     0.77555
      H   82    0.23492      0.00000     0.76263    0.00245     0.76508
      C   83   -0.21700      1.99922     4.19953    0.01825     6.21700
      C   84   -0.20559      1.99920     4.18893    0.01746     6.20559
      C   85   -0.22460      1.99911     4.20639    0.01910     6.22460
      C   86   -0.33225      1.99903     4.30344    0.02978     6.33225
      C   87   -0.21430      1.99911     4.19613    0.01906     6.21430
      C   88   -0.20538      1.99921     4.18852    0.01765     6.20538
      H   89    0.21880      0.00000     0.78004    0.00116     0.78120
      H   90    0.22664      0.00000     0.77208    0.00128     0.77336
      H   91    0.22057      0.00000     0.77795    0.00148     0.77943
      H   92    0.22929      0.00000     0.76906    0.00166     0.77071
      H   93    0.21825      0.00000     0.78051    0.00124     0.78175
 =======================================================================
   * Total *   -0.00000    153.94206   316.66303    1.39490   472.00000

 Normal termination of Gaussian 09 at Mon Dec  6 16:31:06 2021.
