 Gaussian 09, Revision E.01,

 ----------------------------------------------------------------------
 # PBE1PBE gen pseudo=read int=(grid=ultrafine) empiricaldispersion=GD3
 BJ nmr=giao
 ----------------------------------------------------------------------

 ------------------
 W001_1_6_F_1 title
 ------------------
 Symbolic Z-matrix:
 Charge =  0 Multiplicity = 1

 SCF Done:  E(RPBE1PBE) =  -3774.75014767     A.U. after   40 cycles

      1  C    Isotropic =   112.1055   Anisotropy =    88.3935

      2  C    Isotropic =   113.2146   Anisotropy =    88.2543

      3  C    Isotropic =   111.9805   Anisotropy =    90.1994

      4  C    Isotropic =   109.5735   Anisotropy =    93.2477

      5  C    Isotropic =   112.3970   Anisotropy =    90.9368

      6  H    Isotropic =    27.5694   Anisotropy =     7.2335

      7  H    Isotropic =    27.5067   Anisotropy =     6.6569

      8  H    Isotropic =    27.1909   Anisotropy =     4.3719

      9  H    Isotropic =    27.1312   Anisotropy =     4.0087

     10  H    Isotropic =    27.3361   Anisotropy =     4.9962

     11  Fe   Isotropic = -6153.8918   Anisotropy =  8222.2870

     12  C    Isotropic =   114.6732   Anisotropy =    86.8371

     13  C    Isotropic =   107.5070   Anisotropy =    89.8007

     14  C    Isotropic =    91.5367   Anisotropy =    94.1863

     15  C    Isotropic =    87.1702   Anisotropy =    89.1233

     16  C    Isotropic =   116.8329   Anisotropy =    91.2361

     17  H    Isotropic =    27.7837   Anisotropy =     7.5801

     18  H    Isotropic =    27.7103   Anisotropy =     4.1928

     19  C    Isotropic =   156.1108   Anisotropy =    20.5922

     20  P    Isotropic =   292.8097   Anisotropy =   115.1535

     21  H    Isotropic =    27.3363   Anisotropy =     4.8983

     22  C    Isotropic =   169.5788   Anisotropy =    11.4829

     23  H    Isotropic =    29.8252   Anisotropy =    10.5875

     24  H    Isotropic =    29.3281   Anisotropy =     8.7637

     25  H    Isotropic =    30.4188   Anisotropy =     6.9446

     26  C    Isotropic =    55.6156   Anisotropy =   189.4517

     27  C    Isotropic =    46.3498   Anisotropy =   161.8143

     28  C    Isotropic =    43.7698   Anisotropy =   182.3736

     29  C    Isotropic =    35.2299   Anisotropy =   209.5803

     30  C    Isotropic =    38.1286   Anisotropy =   196.6714

     31  C    Isotropic =    46.9816   Anisotropy =   161.2048

     32  H    Isotropic =    23.4025   Anisotropy =    10.1790

     33  C    Isotropic =    48.7707   Anisotropy =    14.2053

     34  H    Isotropic =    22.8475   Anisotropy =    13.2785

     35  H    Isotropic =    23.5493   Anisotropy =    15.7535

     36  C    Isotropic =    48.7855   Anisotropy =    15.1693

     37  C    Isotropic =    57.3590   Anisotropy =   188.6908

     38  C    Isotropic =    46.7940   Anisotropy =   167.7530

     39  C    Isotropic =    54.3796   Anisotropy =   198.7045

     40  C    Isotropic =    31.8231   Anisotropy =   222.9188

     41  C    Isotropic =    46.4420   Anisotropy =   193.2831

     42  C    Isotropic =    47.9843   Anisotropy =   164.7225

     43  H    Isotropic =    23.9463   Anisotropy =     9.4448

     44  C    Isotropic =    48.3748   Anisotropy =    12.0421

     45  H    Isotropic =    23.7920   Anisotropy =    10.0650

     46  H    Isotropic =    23.7765   Anisotropy =     7.9227

     47  C    Isotropic =    49.6631   Anisotropy =    15.3214

     48  F    Isotropic =   250.9669   Anisotropy =   138.1651

     49  F    Isotropic =   244.4862   Anisotropy =   127.2014

     50  F    Isotropic =   219.1923   Anisotropy =   146.8261

     51  F    Isotropic =   220.5418   Anisotropy =   148.0356

     52  F    Isotropic =   255.4262   Anisotropy =   123.6363

     53  F    Isotropic =   234.9921   Anisotropy =   147.9568

     54  F    Isotropic =   243.5211   Anisotropy =   139.7794

     55  F    Isotropic =   247.8292   Anisotropy =   140.0709

     56  F    Isotropic =   222.8334   Anisotropy =   143.4511

     57  F    Isotropic =   248.4310   Anisotropy =   137.9233

     58  F    Isotropic =   219.4397   Anisotropy =   148.1902

     59  F    Isotropic =   244.5356   Anisotropy =   139.2988

     60  P    Isotropic =   299.7692   Anisotropy =    28.1574

     61  C    Isotropic =    53.7957   Anisotropy =   183.2753

     62  C    Isotropic =    52.3019   Anisotropy =   184.5536

     63  C    Isotropic =    47.8579   Anisotropy =   188.0270

     64  C    Isotropic =    31.4929   Anisotropy =   211.1521

     65  C    Isotropic =    45.2982   Anisotropy =   193.3669

     66  C    Isotropic =    52.9876   Anisotropy =   181.6260

     67  H    Isotropic =    24.0801   Anisotropy =     3.7728

     68  H    Isotropic =    24.0956   Anisotropy =     5.6202

     69  H    Isotropic =    24.2011   Anisotropy =    11.4236

     70  H    Isotropic =    24.3977   Anisotropy =    15.6065

     71  H    Isotropic =    24.1145   Anisotropy =     8.2475

     72  H    Isotropic =    27.4640   Anisotropy =     7.7849

     73  C    Isotropic =    49.0030   Anisotropy =   199.3586

     74  C    Isotropic =    51.2100   Anisotropy =   191.1038

     75  C    Isotropic =    45.7741   Anisotropy =   168.6749

     76  C    Isotropic =    40.0757   Anisotropy =   192.3551

     77  C    Isotropic =    38.2064   Anisotropy =   201.2933

     78  C    Isotropic =    45.7441   Anisotropy =   204.2213

     79  H    Isotropic =    24.6979   Anisotropy =     3.8791

     80  H    Isotropic =    23.7577   Anisotropy =     3.9648

     81  H    Isotropic =    22.8301   Anisotropy =     7.5553

     82  H    Isotropic =    24.8012   Anisotropy =     7.8375

     83  C    Isotropic =    48.6135   Anisotropy =   194.1809

     84  C    Isotropic =    50.1478   Anisotropy =   189.2078

     85  C    Isotropic =    38.2250   Anisotropy =   199.9263

     86  C    Isotropic =    39.9861   Anisotropy =   203.7453

     87  C    Isotropic =    41.0802   Anisotropy =   182.2260

     88  C    Isotropic =    50.5710   Anisotropy =   189.3588

     89  H    Isotropic =    23.6944   Anisotropy =     3.4818

     90  H    Isotropic =    23.9482   Anisotropy =     5.7832

     91  H    Isotropic =    24.2266   Anisotropy =    11.8465

     92  H    Isotropic =    22.6813   Anisotropy =     8.6211

     93  H    Isotropic =    23.5910   Anisotropy =     6.2011

 Normal termination of Gaussian 09 at Mon Dec  6 17:02:42 2021.
 Gaussian 09:  ES64L-G09RevE.01 30-Nov-2015

 ----------------------------------------------------------------------
 # PBE1PBE gen pseudo=read int=(grid=ultrafine) empiricaldispersion=GD3
 BJ pop=nbo guess=read geom=check
 ----------------------------------------------------------------------

 ------------------
 W001_1_6_F_1 title
 ------------------
 Structure from the checkpoint file:  "W001_1_6_F_1_SPE_NoPd.chk"
 Charge =  0 Multiplicity = 1

                         Standard orientation:
 ---------------------------------------------------------------------
 Center     Atomic      Atomic             Coordinates (Angstroms)
 Number     Number       Type             X           Y           Z
 ---------------------------------------------------------------------
      1          6           0       -3.177307   -5.173008   -0.396609
      2          6           0       -4.457476   -4.859370   -0.970792
      3          6           0       -5.162433   -4.010802   -0.050764
      4          6           0       -4.321448   -3.802480    1.093687
      5          6           0       -3.091169   -4.517177    0.880779
      6          1           0       -4.807331   -5.164457   -1.957559
      7          1           0       -6.143739   -3.563916   -0.213297
      8          1           0       -4.573433   -3.187407    1.958102
      9          1           0       -2.236646   -4.546386    1.558756
     10          1           0       -2.397086   -5.772934   -0.866352
     11         26           0       -3.386515   -3.153601   -0.619400
     12          6           0       -3.538605   -2.119911   -2.381103
     13          6           0       -3.828194   -1.266350   -1.267602
     14          6           0       -2.676694   -1.249874   -0.396980
     15          6           0       -1.675744   -2.128583   -0.987955
     16          6           0       -2.217292   -2.641335   -2.217759
     17          1           0       -4.224227   -2.365697   -3.191850
     18          1           0       -1.712117   -3.324972   -2.897142
     19          6           0       -0.272639   -2.322058   -0.471812
     20         15           0        0.601418   -0.673605   -0.846552
     21          1           0       -0.314793   -2.421929    0.625964
     22          6           0        0.433724   -3.539943   -1.080979
     23          1           0        1.404250   -3.736237   -0.600880
     24          1           0       -0.208827   -4.425537   -0.937811
     25          1           0        0.604119   -3.393469   -2.159436
     26          6           0        5.141988   -1.198758   -1.754381
     27          6           0        4.342926   -0.391437   -2.573130
     28          6           0        2.966881   -0.268059   -2.333558
     29          6           0        2.381919   -0.949616   -1.254342
     30          6           0        3.187629   -1.731589   -0.409686
     31          6           0        4.557471   -1.868007   -0.671132
     32          1           0        6.211835   -1.298604   -1.952355
     33          6           0        4.946754    0.308655   -3.768271
     34          1           0        2.345828    0.342944   -2.992583
     35          1           0        2.763643   -2.232964    0.465123
     36          6           0        5.414725   -2.673827    0.273487
     37          6           0        1.704008    1.473766    3.158602
     38          6           0        1.307204    0.131821    3.194212
     39          6           0        0.922351   -0.533841    2.022034
     40          6           0        0.936227    0.138758    0.790091
     41          6           0        1.348080    1.482602    0.754336
     42          6           0        1.716054    2.146535    1.930996
     43          1           0        1.999627    1.990125    4.075492
     44          6           0        1.230440   -0.564870    4.530362
     45          1           0        0.611092   -1.577501    2.097089
     46          1           0        1.370105    2.023904   -0.195015
     47          6           0        2.020479    3.623651    1.884300
     48          9           0        2.800854    4.014608    2.926039
     49          9           0        2.651693    3.975952    0.734649
     50          9           0        0.865861    4.351901    1.951770
     51          9           0        0.194065   -0.076620    5.278559
     52          9           0        1.037294   -1.903898    4.402593
     53          9           0        2.361028   -0.372074    5.257846
     54          9           0        4.346701    1.508154   -3.993491
     55          9           0        6.277969    0.537886   -3.591861
     56          9           0        4.810092   -0.432625   -4.897542
     57          9           0        6.504373   -3.191598   -0.350728
     58          9           0        5.866160   -1.909274    1.307070
     59          9           0        4.715638   -3.708178    0.819837
     60         15           0       -1.952940    1.708105   -1.054914
     61          6           0       -6.369484    2.946971   -1.884141
     62          6           0       -5.355549    3.266448   -2.798665
     63          6           0       -4.035051    2.864621   -2.565341
     64          6           0       -3.718155    2.122434   -1.408825
     65          6           0       -4.735764    1.821336   -0.481142
     66          6           0       -6.055023    2.229902   -0.722070
     67          1           0       -7.400493    3.263867   -2.072135
     68          1           0       -5.590297    3.833322   -3.705171
     69          1           0       -3.250471    3.105759   -3.285215
     70          1           0       -4.501628    1.276870    0.437507
     71          1           0       -6.835219    1.989599    0.007774
     72          1           0       -4.764418   -0.739872   -1.090020
     73          6           0       -1.852497    1.195633    3.063983
     74          6           0       -2.210398   -0.149189    3.218213
     75          6           0       -2.489596   -0.926708    2.088385
     76          6           0       -2.433175   -0.387375    0.789063
     77          6           0       -2.066172    0.982236    0.642090
     78          6           0       -1.779245    1.755379    1.782691
     79          1           0       -1.600352    1.802890    3.938447
     80          1           0       -2.243137   -0.598472    4.215106
     81          1           0       -2.753698   -1.981857    2.189050
     82          1           0       -1.451286    2.792302    1.669407
     83          6           0       -0.083728    5.949678   -0.764246
     84          6           0       -1.305838    5.689052   -0.125569
     85          6           0       -1.883708    4.416569   -0.203696
     86          6           0       -1.224134    3.386178   -0.905652
     87          6           0       -0.015357    3.662838   -1.572070
     88          6           0        0.555733    4.939956   -1.495591
     89          1           0        0.362566    6.947253   -0.702586
     90          1           0       -1.816894    6.483762    0.427390
     91          1           0       -2.854078    4.224710    0.266297
     92          1           0        0.451031    2.872204   -2.173548
     93          1           0        1.496423    5.145619   -2.015491
 ---------------------------------------------------------------------

 SCF Done:  E(RPBE1PBE) =  -3774.75014769     A.U. after    3 cycles

 The electronic state is 1-A.
 Alpha  occ. eigenvalues --  -77.22197 -77.20471 -24.81679 -24.81559 -24.81516
 Alpha  occ. eigenvalues --  -24.81469 -24.81379 -24.81268 -24.81209 -24.81097
 Alpha  occ. eigenvalues --  -24.81063 -24.81009 -24.80977 -24.80498 -10.49102
 Alpha  occ. eigenvalues --  -10.49083 -10.48930 -10.48560 -10.28549 -10.28508
 Alpha  occ. eigenvalues --  -10.27996 -10.27954 -10.27831 -10.27633 -10.27620
 Alpha  occ. eigenvalues --  -10.27492 -10.27303 -10.27167 -10.26981 -10.26728
 Alpha  occ. eigenvalues --  -10.26674 -10.25797 -10.25569 -10.25290 -10.25236
 Alpha  occ. eigenvalues --  -10.24677 -10.24625 -10.24574 -10.24536 -10.24496
 Alpha  occ. eigenvalues --  -10.24450 -10.24367 -10.24356 -10.24325 -10.24308
 Alpha  occ. eigenvalues --  -10.24162 -10.24105 -10.24077 -10.24043 -10.24018
 Alpha  occ. eigenvalues --  -10.23995 -10.23942 -10.23935 -10.23854 -10.23799
 Alpha  occ. eigenvalues --  -10.23541 -10.23488 -10.23470 -10.23394 -10.23290
 Alpha  occ. eigenvalues --   -6.61775  -6.60064  -4.75380  -4.75332  -4.74888
 Alpha  occ. eigenvalues --   -4.73655  -4.73649  -4.73198  -3.60878  -2.25473
 Alpha  occ. eigenvalues --   -2.21160  -2.21115  -1.35028  -1.34993  -1.34901
 Alpha  occ. eigenvalues --   -1.34466  -1.26754  -1.26731  -1.26632  -1.26477
 Alpha  occ. eigenvalues --   -1.26284  -1.26283  -1.26127  -1.25716  -0.93318
 Alpha  occ. eigenvalues --   -0.92921  -0.92573  -0.90918  -0.89129  -0.88537
 Alpha  occ. eigenvalues --   -0.87958  -0.84879  -0.84324  -0.84291  -0.81972
 Alpha  occ. eigenvalues --   -0.81531  -0.80265  -0.79588  -0.77667  -0.77374
 Alpha  occ. eigenvalues --   -0.76882  -0.76715  -0.75065  -0.74605  -0.74190
 Alpha  occ. eigenvalues --   -0.74068  -0.74056  -0.73717  -0.73223  -0.73098
 Alpha  occ. eigenvalues --   -0.70158  -0.67282  -0.67227  -0.66979  -0.66711
 Alpha  occ. eigenvalues --   -0.66069  -0.64117  -0.63447  -0.63120  -0.62945
 Alpha  occ. eigenvalues --   -0.62298  -0.62236  -0.62106  -0.62025  -0.61957
 Alpha  occ. eigenvalues --   -0.61912  -0.61811  -0.61770  -0.61443  -0.61384
 Alpha  occ. eigenvalues --   -0.60262  -0.58264  -0.57413  -0.56862  -0.56545
 Alpha  occ. eigenvalues --   -0.56330  -0.56195  -0.55842  -0.55714  -0.54883
 Alpha  occ. eigenvalues --   -0.54595  -0.54228  -0.53573  -0.52845  -0.52232
 Alpha  occ. eigenvalues --   -0.51758  -0.51077  -0.50390  -0.49910  -0.49744
 Alpha  occ. eigenvalues --   -0.49679  -0.49614  -0.49492  -0.49334  -0.49257
 Alpha  occ. eigenvalues --   -0.48999  -0.48650  -0.47929  -0.47540  -0.47175
 Alpha  occ. eigenvalues --   -0.46916  -0.46721  -0.46578  -0.46440  -0.46251
 Alpha  occ. eigenvalues --   -0.46170  -0.46053  -0.45940  -0.45789  -0.45619
 Alpha  occ. eigenvalues --   -0.45465  -0.45378  -0.45060  -0.44348  -0.44237
 Alpha  occ. eigenvalues --   -0.44184  -0.44101  -0.44028  -0.43892  -0.43840
 Alpha  occ. eigenvalues --   -0.43748  -0.43602  -0.43391  -0.43331  -0.43209
 Alpha  occ. eigenvalues --   -0.43006  -0.42779  -0.42526  -0.42442  -0.42052
 Alpha  occ. eigenvalues --   -0.41929  -0.41715  -0.41438  -0.40836  -0.39991
 Alpha  occ. eigenvalues --   -0.39922  -0.39806  -0.39544  -0.39241  -0.38899
 Alpha  occ. eigenvalues --   -0.38697  -0.38556  -0.38145  -0.37735  -0.37237
 Alpha  occ. eigenvalues --   -0.36509  -0.36400  -0.36145  -0.35919  -0.35631
 Alpha  occ. eigenvalues --   -0.34022  -0.33899  -0.32082  -0.31137  -0.30703
 Alpha  occ. eigenvalues --   -0.29829  -0.29070  -0.28764  -0.28433  -0.27927
 Alpha  occ. eigenvalues --   -0.27746  -0.27496  -0.27105  -0.26675  -0.26554
 Alpha  occ. eigenvalues --   -0.26168  -0.25712  -0.25298  -0.22907  -0.22789
 Alpha  occ. eigenvalues --   -0.21170
 Alpha virt. eigenvalues --   -0.07060  -0.06694  -0.05639  -0.04716  -0.03881
 Alpha virt. eigenvalues --   -0.03327  -0.02740  -0.02007  -0.01911  -0.01012
 Alpha virt. eigenvalues --   -0.00816  -0.00617  -0.00211   0.01320   0.01830

 Mulliken charges:
               1
     1  C   -0.071569
     2  C   -0.048646
     3  C    0.006923
     4  C   -0.110292
     5  C   -0.167381
     6  H    0.119456
     7  H    0.122793
     8  H    0.130181
     9  H    0.123530
    10  H    0.124512
    11  Fe  -0.483264
    12  C   -0.134873
    13  C   -0.075719
    14  C    0.459825
    15  C    0.225597
    16  C   -0.092976
    17  H    0.113515
    18  H    0.129504
    19  C   -0.127161
    20  P    0.034122
    21  H    0.087897
    22  C   -0.396680
    23  H    0.138474
    24  H    0.144560
    25  H    0.136711
    26  C   -0.302644
    27  C    0.169396
    28  C   -0.360672
    29  C    0.208121
    30  C   -0.360957
    31  C    0.167458
    32  H    0.167982
    33  C    0.440457
    34  H    0.160961
    35  H    0.169262
    36  C    0.437863
    37  C   -0.324034
    38  C    0.128617
    39  C   -0.310903
    40  C    0.332052
    41  C   -0.279621
    42  C    0.086484
    43  H    0.155817
    44  C    0.445148
    45  H    0.137551
    46  H    0.118370
    47  C    0.468447
    48  F   -0.161929
    49  F   -0.166350
    50  F   -0.159011
    51  F   -0.166919
    52  F   -0.169950
    53  F   -0.158798
    54  F   -0.163482
    55  F   -0.163619
    56  F   -0.155577
    57  F   -0.161319
    58  F   -0.156073
    59  F   -0.166136
    60  P    0.069794
    61  C   -0.115828
    62  C   -0.121427
    63  C   -0.199707
    64  C    0.182471
    65  C   -0.245687
    66  C   -0.159096
    67  H    0.117875
    68  H    0.117713
    69  H    0.119207
    70  H    0.165439
    71  H    0.117963
    72  H    0.135183
    73  C   -0.201865
    74  C   -0.110099
    75  C   -0.262421
    76  C   -0.134366
    77  C   -0.303257
    78  C   -0.000205
    79  H    0.114292
    80  H    0.122960
    81  H    0.112853
    82  H    0.161523
    83  C   -0.078132
    84  C   -0.140931
    85  C   -0.158848
    86  C    0.078643
    87  C   -0.229531
    88  C   -0.125368
    89  H    0.121580
    90  H    0.118642
    91  H    0.160622
    92  H    0.152947
    93  H    0.122032
 Sum of Mulliken charges =  -0.00000

 Dipole moment (field-independent basis, Debye):
    X=             -3.8868    Y=             -0.4929    Z=             -1.0904  Tot=              4.0668
 Quadrupole moment (field-independent basis, Debye-Ang):
   XX=           -371.9786   YY=           -359.8815   ZZ=           -374.8527
   XY=             -0.7806   XZ=              1.0256   YZ=              6.9240

 Summary of Natural Population Analysis:

                                       Natural Population
                Natural  -----------------------------------------------
    Atom  No    Charge         Core      Valence    Rydberg      Total
 -----------------------------------------------------------------------
      C    1   -0.20767      1.99876     4.18349    0.02542     6.20767
      C    2   -0.20507      1.99877     4.18097    0.02533     6.20507
      C    3   -0.20503      1.99877     4.18106    0.02519     6.20503
      C    4   -0.21168      1.99876     4.18765    0.02527     6.21168
      C    5   -0.21781      1.99875     4.19427    0.02479     6.21781
      H    6    0.24656      0.00000     0.75211    0.00133     0.75344
      H    7    0.24803      0.00000     0.75067    0.00130     0.75197
      H    8    0.24653      0.00000     0.75214    0.00133     0.75347
      H    9    0.24429      0.00000     0.75437    0.00134     0.75571
      H   10    0.24426      0.00000     0.75433    0.00141     0.75574
     Fe   11   -0.32174     17.99235     8.29153    0.03786    26.32174
      C   12   -0.19105      1.99878     4.16962    0.02265     6.19105
      C   13   -0.18587      1.99870     4.16260    0.02458     6.18587
      C   14   -0.04921      1.99858     4.01557    0.03506     6.04921
      C   15   -0.00345      1.99858     3.96854    0.03633     6.00345
      C   16   -0.20296      1.99869     4.18173    0.02254     6.20296
      H   17    0.24477      0.00000     0.75373    0.00150     0.75523
      H   18    0.24481      0.00000     0.75338    0.00181     0.75519
      C   19   -0.48143      1.99925     4.45778    0.02440     6.48143
      P   20    0.83558      9.99804     4.13866    0.02772    14.16442
      H   21    0.23518      0.00000     0.76216    0.00266     0.76482
      C   22   -0.61744      1.99945     4.60492    0.01306     6.61744
      H   23    0.22229      0.00000     0.77677    0.00094     0.77771
      H   24    0.22632      0.00000     0.77233    0.00135     0.77368
      H   25    0.21618      0.00000     0.78258    0.00123     0.78382
      C   26   -0.14816      1.99907     4.13267    0.01642     6.14816
      C   27   -0.14706      1.99898     4.12375    0.02433     6.14706
      C   28   -0.15731      1.99905     4.14004    0.01823     6.15731
      C   29   -0.31409      1.99905     4.28395    0.03109     6.31409
      C   30   -0.15624      1.99902     4.13815    0.01906     6.15624
      C   31   -0.15081      1.99898     4.12673    0.02511     6.15081
      H   32    0.25464      0.00000     0.74403    0.00133     0.74536
      C   33    0.94959      1.99913     3.00348    0.04780     5.05041
      H   34    0.24740      0.00000     0.75126    0.00135     0.75260
      H   35    0.23605      0.00000     0.76184    0.00211     0.76395
      C   36    0.94992      1.99912     3.00367    0.04729     5.05008
      C   37   -0.15938      1.99906     4.14414    0.01618     6.15938
      C   38   -0.14446      1.99895     4.12005    0.02545     6.14446
      C   39   -0.17858      1.99899     4.16046    0.01914     6.17858
      C   40   -0.28866      1.99904     4.25574    0.03388     6.28866
      C   41   -0.17233      1.99900     4.15374    0.01959     6.17233
      C   42   -0.14798      1.99895     4.12413    0.02491     6.14798
      H   43    0.25080      0.00000     0.74779    0.00141     0.74920
      C   44    0.95146      1.99910     3.00308    0.04636     5.04854
      H   45    0.23340      0.00000     0.76468    0.00192     0.76660
      H   46    0.24939      0.00000     0.74838    0.00223     0.75061
      C   47    0.95250      1.99911     3.00147    0.04692     5.04750
      F   48   -0.31199      1.99992     7.30412    0.00794     9.31199
      F   49   -0.30940      1.99992     7.30136    0.00811     9.30940
      F   50   -0.31427      1.99993     7.30607    0.00828     9.31427
      F   51   -0.31868      1.99993     7.31048    0.00827     9.31868
      F   52   -0.31264      1.99992     7.30470    0.00801     9.31264
      F   53   -0.30873      1.99992     7.30067    0.00813     9.30873
      F   54   -0.31143      1.99992     7.30298    0.00853     9.31143
      F   55   -0.31220      1.99993     7.30377    0.00851     9.31220
      F   56   -0.30837      1.99992     7.30002    0.00842     9.30837
      F   57   -0.30975      1.99992     7.30134    0.00848     9.30975
      F   58   -0.30935      1.99992     7.30114    0.00829     9.30935
      F   59   -0.31396      1.99993     7.30577    0.00826     9.31396
      P   60    0.83741      9.99775     4.13545    0.02940    14.16259
      C   61   -0.22081      1.99921     4.20319    0.01841     6.22081
      C   62   -0.20729      1.99922     4.19042    0.01765     6.20729
      C   63   -0.21016      1.99911     4.19196    0.01909     6.21016
      C   64   -0.30677      1.99903     4.27698    0.03076     6.30677
      C   65   -0.23481      1.99909     4.21565    0.02007     6.23481
      C   66   -0.21266      1.99921     4.19555    0.01791     6.21266
      H   67    0.21814      0.00000     0.78070    0.00116     0.78186
      H   68    0.21851      0.00000     0.78025    0.00124     0.78149
      H   69    0.22182      0.00000     0.77659    0.00160     0.77818
      H   70    0.22849      0.00000     0.76914    0.00238     0.77151
      H   71    0.21718      0.00000     0.78156    0.00126     0.78282
      H   72    0.25749      0.00000     0.74022    0.00229     0.74251
      C   73   -0.20683      1.99920     4.18928    0.01835     6.20683
      C   74   -0.21057      1.99920     4.19331    0.01805     6.21057
      C   75   -0.21314      1.99908     4.19623    0.01784     6.21314
      C   76   -0.04807      1.99892     4.02480    0.02435     6.04807
      C   77   -0.29423      1.99896     4.26255    0.03272     6.29423
      C   78   -0.21998      1.99908     4.19980    0.02110     6.21998
      H   79    0.22622      0.00000     0.77250    0.00128     0.77378
      H   80    0.22770      0.00000     0.77103    0.00127     0.77230
      H   81    0.22436      0.00000     0.77344    0.00220     0.77564
      H   82    0.23737      0.00000     0.76040    0.00222     0.76263
      C   83   -0.19552      1.99922     4.17838    0.01792     6.19552
      C   84   -0.20833      1.99921     4.19116    0.01796     6.20833
      C   85   -0.20394      1.99910     4.18530    0.01955     6.20394
      C   86   -0.33929      1.99904     4.30995    0.03031     6.33929
      C   87   -0.21483      1.99912     4.19597    0.01975     6.21483
      C   88   -0.21072      1.99920     4.19374    0.01778     6.21072
      H   89    0.22099      0.00000     0.77785    0.00116     0.77901
      H   90    0.22037      0.00000     0.77835    0.00128     0.77963
      H   91    0.22927      0.00000     0.76845    0.00228     0.77073
      H   92    0.22541      0.00000     0.77258    0.00201     0.77459
      H   93    0.22348      0.00000     0.77525    0.00126     0.77652
 =======================================================================
   * Total *    0.00000    153.94184   316.66658    1.39159   472.00000

 Normal termination of Gaussian 09 at Mon Dec  6 17:25:51 2021.
