 Gaussian 09, Revision E.01,

 ----------------------------------------------------------------------
 # PBE1PBE gen pseudo=read int=(grid=ultrafine) empiricaldispersion=GD3
 BJ nmr=giao
 ----------------------------------------------------------------------

 -----------------------
 RR_Me_Ferrolane_3 title
 -----------------------
 Symbolic Z-matrix:
 Charge =  0 Multiplicity = 1

 SCF Done:  E(RPBE1PBE) =  -2711.51114065     A.U. after   25 cycles

      1  Fe   Isotropic = -5863.0305   Anisotropy =  7805.7689

      2  P    Isotropic =   202.3547   Anisotropy =   103.3670

      3  P    Isotropic =   213.4231   Anisotropy =   126.8268

      4  C    Isotropic =   105.6803   Anisotropy =    84.6140

      5  C    Isotropic =   104.1931   Anisotropy =    85.9577

      6  C    Isotropic =   106.8295   Anisotropy =    90.8617

      7  C    Isotropic =   110.1495   Anisotropy =    87.6450

      8  C    Isotropic =   107.9876   Anisotropy =    80.5235

      9  C    Isotropic =   106.9424   Anisotropy =    82.6400

     10  C    Isotropic =   107.8166   Anisotropy =    79.4454

     11  C    Isotropic =   110.6394   Anisotropy =    87.6359

     12  C    Isotropic =   106.7592   Anisotropy =    90.4844

     13  C    Isotropic =   103.5072   Anisotropy =    88.9744

     14  C    Isotropic =   140.2734   Anisotropy =    35.8596

     15  C    Isotropic =   146.5147   Anisotropy =    39.6132

     16  C    Isotropic =   142.1725   Anisotropy =    30.2364

     17  C    Isotropic =   149.9385   Anisotropy =    34.6035

     18  C    Isotropic =   138.5341   Anisotropy =    32.3556

     19  C    Isotropic =   147.5912   Anisotropy =    29.7578

     20  C    Isotropic =   143.5789   Anisotropy =    28.8550

     21  C    Isotropic =   146.8470   Anisotropy =    26.6248

     22  H    Isotropic =    27.2049   Anisotropy =     4.7648

     23  H    Isotropic =    27.2013   Anisotropy =     8.1570

     24  H    Isotropic =    27.3537   Anisotropy =     9.2316

     25  H    Isotropic =    27.5709   Anisotropy =     4.8553

     26  H    Isotropic =    27.5725   Anisotropy =     5.1611

     27  H    Isotropic =    27.3484   Anisotropy =     3.8534

     28  Cl   Isotropic =   914.1455   Anisotropy =   408.7626

     29  Cl   Isotropic =   892.8805   Anisotropy =   403.1259

     30  Pd   Isotropic =  -153.1237   Anisotropy =   247.7281

     31  H    Isotropic =    27.3475   Anisotropy =     7.9196

     32  C    Isotropic =   166.7246   Anisotropy =    22.5247

     33  H    Isotropic =    28.5868   Anisotropy =     6.3950

     34  C    Isotropic =   162.0832   Anisotropy =    25.4765

     35  H    Isotropic =    28.4396   Anisotropy =     6.9130

     36  H    Isotropic =    29.8208   Anisotropy =    12.8392

     37  H    Isotropic =    29.4441   Anisotropy =     8.7845

     38  H    Isotropic =    29.6300   Anisotropy =    12.2495

     39  H    Isotropic =    27.3668   Anisotropy =     9.3259

     40  H    Isotropic =    27.2047   Anisotropy =     8.0889

     41  H    Isotropic =    30.6578   Anisotropy =    13.9570

     42  H    Isotropic =    30.9315   Anisotropy =     6.6745

     43  H    Isotropic =    31.0664   Anisotropy =     5.7442

     44  H    Isotropic =    28.6604   Anisotropy =     4.8585

     45  H    Isotropic =    29.6952   Anisotropy =     5.4128

     46  H    Isotropic =    30.2248   Anisotropy =    13.0340

     47  H    Isotropic =    26.8814   Anisotropy =     8.8861

     48  C    Isotropic =   169.8953   Anisotropy =    18.8451

     49  H    Isotropic =    28.8869   Anisotropy =     6.1859

     50  C    Isotropic =   164.2629   Anisotropy =    20.5091

     51  H    Isotropic =    29.5454   Anisotropy =    12.6697

     52  H    Isotropic =    30.2439   Anisotropy =     7.0194

     53  H    Isotropic =    29.3933   Anisotropy =    12.1117

     54  H    Isotropic =    29.3666   Anisotropy =     7.3169

     55  H    Isotropic =    30.3904   Anisotropy =    13.6536

     56  H    Isotropic =    31.3730   Anisotropy =     5.7420

     57  H    Isotropic =    30.1706   Anisotropy =     7.8093

     58  H    Isotropic =    30.0429   Anisotropy =    12.6407

     59  H    Isotropic =    29.8312   Anisotropy =     5.7150

     60  H    Isotropic =    28.4279   Anisotropy =     6.8928

 Normal termination of Gaussian 09 at Sun Dec  5 03:32:51 2021.
 Gaussian 09:  ES64L-G09RevE.01 30-Nov-2015

 ----------------------------------------------------------------------
 # PBE1PBE gen pseudo=read int=(grid=ultrafine) empiricaldispersion=GD3
 BJ pop=nbo guess=read geom=check
 ----------------------------------------------------------------------

 -----------------------
 RR_Me_Ferrolane_3 title
 -----------------------
 Structure from the checkpoint file:  "RR_Me_Ferrolane_3_SPE.chk"
 Charge =  0 Multiplicity = 1

                         Standard orientation:
 ---------------------------------------------------------------------
 Center     Atomic      Atomic             Coordinates (Angstroms)
 Number     Number       Type             X           Y           Z
 ---------------------------------------------------------------------
      1         26           0       -0.059828    2.605755   -0.041493
      2         15           0       -1.768992   -0.290607   -0.055036
      3         15           0        1.805924   -0.212820    0.042523
      4          6           0       -1.528885    1.404158   -0.674890
      5          6           0       -0.663009    1.755143   -1.778556
      6          6           0       -0.664620    3.182162   -1.920273
      7          6           0       -1.542012    3.728293   -0.925184
      8          6           0       -2.083391    2.640793   -0.160716
      9          6           0        1.477782    1.491460    0.600505
     10          6           0        1.961478    2.753993    0.077882
     11          6           0        1.357891    3.815526    0.832590
     12          6           0        0.513066    3.229450    1.832896
     13          6           0        0.591478    1.803944    1.701085
     14          6           0       -3.323885   -0.895652   -0.954873
     15          6           0       -4.303843   -1.188953    0.205441
     16          6           0       -2.588408   -0.056846    1.624748
     17          6           0       -4.099510   -0.130336    1.303879
     18          6           0        3.271488   -0.682801    1.125271
     19          6           0        4.466930   -0.120208    0.332594
     20          6           0        2.803834   -0.029505   -1.548530
     21          6           0        4.234485   -0.467269   -1.145577
     22          1           0       -0.065928    1.048336   -2.355230
     23          1           0       -0.063355    3.753229   -2.628438
     24          1           0       -1.723378    4.787964   -0.741165
     25          1           0       -2.758299    2.736060    0.690103
     26          1           0        2.627403    2.886506   -0.774470
     27          1           0        0.044475    1.067959    2.291044
     28         17           0       -1.559283   -3.469726   -0.062504
     29         17           0        1.798959   -3.341335   -0.218843
     30         46           0        0.053891   -1.702234   -0.065056
     31          1           0       -3.039088   -1.834477   -1.453947
     32          6           0       -3.871357    0.108245   -1.976236
     33          1           0       -2.306683    0.946324    1.989443
     34          6           0       -2.123847   -1.113628    2.637223
     35          1           0       -4.081870   -2.192810    0.605861
     36          1           0       -5.345543   -1.194833   -0.163561
     37          1           0       -4.455828    0.854121    0.945806
     38          1           0       -4.675678   -0.371591    2.215508
     39          1           0        1.480281    4.882021    0.639670
     40          1           0       -0.118147    3.771543    2.537840
     41          1           0       -4.756759   -0.329314   -2.470777
     42          1           0       -3.131698    0.347398   -2.758269
     43          1           0       -4.179814    1.059196   -1.508614
     44          1           0       -2.323467   -2.135922    2.277455
     45          1           0       -1.035325   -1.050080    2.810581
     46          1           0       -2.642414   -0.961610    3.600858
     47          1           0        3.288669   -1.785168    1.071798
     48          6           0        3.177989   -0.233472    2.581812
     49          1           0        2.799913    1.050045   -1.784050
     50          6           0        2.246287   -0.811050   -2.742255
     51          1           0        5.413372   -0.547957    0.710291
     52          1           0        4.527868    0.977775    0.470484
     53          1           0        4.981957    0.001573   -1.810123
     54          1           0        4.309726   -1.561935   -1.276521
     55          1           0        4.068603   -0.581470    3.134347
     56          1           0        3.129944    0.865239    2.672850
     57          1           0        2.291288   -0.661952    3.079870
     58          1           0        2.919679   -0.693277   -3.610451
     59          1           0        1.244736   -0.458543   -3.041600
     60          1           0        2.163792   -1.882462   -2.497596
 ---------------------------------------------------------------------

 SCF Done:  E(RPBE1PBE) =  -2711.51114065     A.U. after    1 cycles

 The electronic state is 1-A.
 Alpha  occ. eigenvalues -- -101.61815-101.61630 -77.25518 -77.25448 -10.27079
 Alpha  occ. eigenvalues --  -10.27076 -10.26793 -10.26744 -10.26559 -10.26550
 Alpha  occ. eigenvalues --  -10.26525 -10.26519 -10.26492 -10.26480 -10.25677
 Alpha  occ. eigenvalues --  -10.25603 -10.24446 -10.24299 -10.23878 -10.23538
 Alpha  occ. eigenvalues --  -10.23395 -10.22870 -10.22465 -10.22391 -10.22064
 Alpha  occ. eigenvalues --  -10.21915  -9.44333  -9.44147  -7.17512  -7.17331
 Alpha  occ. eigenvalues --   -7.17061  -7.17020  -7.16875  -7.16832  -6.64772
 Alpha  occ. eigenvalues --   -6.64699  -4.78384  -4.78317  -4.78296  -4.78216
 Alpha  occ. eigenvalues --   -4.78107  -4.78039  -3.63123  -3.51934  -2.27678
 Alpha  occ. eigenvalues --   -2.23456  -2.23395  -2.19781  -2.19440  -2.16183
 Alpha  occ. eigenvalues --   -0.94571  -0.92550  -0.86782  -0.86724  -0.79927
 Alpha  occ. eigenvalues --   -0.79772  -0.77436  -0.77165  -0.76186  -0.76135
 Alpha  occ. eigenvalues --   -0.74865  -0.74327  -0.73954  -0.73749  -0.68375
 Alpha  occ. eigenvalues --   -0.68313  -0.67605  -0.66555  -0.60311  -0.59817
 Alpha  occ. eigenvalues --   -0.59331  -0.58946  -0.58274  -0.57963  -0.57363
 Alpha  occ. eigenvalues --   -0.56839  -0.53151  -0.52495  -0.49905  -0.49580
 Alpha  occ. eigenvalues --   -0.48953  -0.48558  -0.46463  -0.45858  -0.45239
 Alpha  occ. eigenvalues --   -0.44773  -0.44393  -0.43966  -0.43639  -0.43312
 Alpha  occ. eigenvalues --   -0.42967  -0.42638  -0.42513  -0.42369  -0.42264
 Alpha  occ. eigenvalues --   -0.41918  -0.41471  -0.40419  -0.40113  -0.39631
 Alpha  occ. eigenvalues --   -0.39430  -0.38565  -0.37013  -0.36817  -0.36055
 Alpha  occ. eigenvalues --   -0.35815  -0.35295  -0.35107  -0.35008  -0.34853
 Alpha  occ. eigenvalues --   -0.34663  -0.34102  -0.33807  -0.33505  -0.32910
 Alpha  occ. eigenvalues --   -0.31490  -0.31336  -0.30722  -0.30085  -0.29657
 Alpha  occ. eigenvalues --   -0.29280  -0.28446  -0.28181  -0.27250  -0.25965
 Alpha  occ. eigenvalues --   -0.25225  -0.25177  -0.25147  -0.24738  -0.24113
 Alpha  occ. eigenvalues --   -0.24040
 Alpha virt. eigenvalues --   -0.07272  -0.02708  -0.02648  -0.01800  -0.01791
 Alpha virt. eigenvalues --    0.00118   0.00648   0.01208   0.01662   0.02062
 Alpha virt. eigenvalues --    0.02801   0.03102   0.03164   0.03950   0.04284

 Mulliken charges:
               1
     1  Fe  -0.580282
     2  P    0.133551
     3  P    0.142891
     4  C    0.068940
     5  C   -0.059979
     6  C   -0.037538
     7  C   -0.082432
     8  C   -0.076481
     9  C    0.127821
    10  C   -0.079282
    11  C   -0.121572
    12  C   -0.017215
    13  C   -0.167251
    14  C   -0.074014
    15  C   -0.231483
    16  C   -0.106219
    17  C   -0.214334
    18  C   -0.061964
    19  C   -0.218644
    20  C   -0.087165
    21  C   -0.191012
    22  H    0.099947
    23  H    0.126841
    24  H    0.125819
    25  H    0.141518
    26  H    0.135132
    27  H    0.129106
    28  Cl  -0.424768
    29  Cl  -0.424157
    30  Pd   0.191164
    31  H    0.156215
    32  C   -0.387400
    33  H    0.120247
    34  C   -0.399275
    35  H    0.156513
    36  H    0.108913
    37  H    0.115737
    38  H    0.115328
    39  H    0.125167
    40  H    0.126542
    41  H    0.137793
    42  H    0.134636
    43  H    0.124594
    44  H    0.169629
    45  H    0.138279
    46  H    0.128205
    47  H    0.149371
    48  C   -0.403527
    49  H    0.091621
    50  C   -0.386792
    51  H    0.120018
    52  H    0.109418
    53  H    0.113699
    54  H    0.133424
    55  H    0.134964
    56  H    0.137236
    57  H    0.139401
    58  H    0.125551
    59  H    0.125059
    60  H    0.172496
 Sum of Mulliken charges =  -0.00000

 Dipole moment (field-independent basis, Debye):
    X=             -0.2835    Y=             11.5736    Z=              0.5083  Tot=             11.5883
 Quadrupole moment (field-independent basis, Debye-Ang):
   XX=           -204.3699   YY=           -243.5537   ZZ=           -212.6526
   XY=              1.0617   XZ=             -5.9597   YZ=             -2.3345

 Summary of Natural Population Analysis:

                                       Natural Population
                Natural  -----------------------------------------------
    Atom  No    Charge         Core      Valence    Rydberg      Total
 -----------------------------------------------------------------------
     Fe    1   -0.33801     17.99209     8.31112    0.03480    26.33801
      P    2    1.16820      9.99600     3.78280    0.05300    13.83180
      P    3    1.17006      9.99597     3.78077    0.05320    13.82994
      C    4   -0.35983      1.99851     4.31704    0.04428     6.35983
      C    5   -0.19149      1.99865     4.16772    0.02512     6.19149
      C    6   -0.19732      1.99877     4.17543    0.02312     6.19732
      C    7   -0.19959      1.99877     4.17795    0.02287     6.19959
      C    8   -0.20037      1.99866     4.17603    0.02568     6.20037
      C    9   -0.36339      1.99852     4.31948    0.04539     6.36339
      C   10   -0.19979      1.99867     4.17566    0.02546     6.19979
      C   11   -0.20118      1.99877     4.17957    0.02284     6.20118
      C   12   -0.19879      1.99877     4.17679    0.02323     6.19879
      C   13   -0.19248      1.99865     4.16873    0.02511     6.19248
      C   14   -0.48811      1.99942     4.46210    0.02659     6.48811
      C   15   -0.42504      1.99942     4.41108    0.01454     6.42504
      C   16   -0.49554      1.99943     4.47214    0.02396     6.49554
      C   17   -0.41742      1.99943     4.40387    0.01413     6.41742
      C   18   -0.49934      1.99941     4.47286    0.02706     6.49934
      C   19   -0.41425      1.99941     4.40015    0.01468     6.41425
      C   20   -0.48304      1.99942     4.45958    0.02405     6.48304
      C   21   -0.41512      1.99943     4.40152    0.01417     6.41512
      H   22    0.25275      0.00000     0.74426    0.00299     0.74725
      H   23    0.25111      0.00000     0.74758    0.00131     0.74889
      H   24    0.25111      0.00000     0.74761    0.00128     0.74889
      H   25    0.24841      0.00000     0.74943    0.00216     0.75159
      H   26    0.24754      0.00000     0.75071    0.00175     0.75246
      H   27    0.25400      0.00000     0.74344    0.00256     0.74600
     Cl   28   -0.43981      9.99965     7.43038    0.00978    17.43981
     Cl   29   -0.43899      9.99964     7.42953    0.00981    17.43899
     Pd   30   -0.14043     35.98803    10.12462    0.02777    46.14043
      H   31    0.27795      0.00000     0.72067    0.00137     0.72205
      C   32   -0.62562      1.99945     4.61253    0.01365     6.62562
      H   33    0.23152      0.00000     0.76693    0.00155     0.76848
      C   34   -0.62985      1.99945     4.61861    0.01179     6.62985
      H   35    0.24165      0.00000     0.75697    0.00138     0.75835
      H   36    0.22188      0.00000     0.77645    0.00167     0.77812
      H   37    0.20474      0.00000     0.79383    0.00143     0.79526
      H   38    0.22661      0.00000     0.77182    0.00158     0.77339
      H   39    0.25121      0.00000     0.74750    0.00128     0.74879
      H   40    0.25094      0.00000     0.74774    0.00131     0.74906
      H   41    0.22329      0.00000     0.77535    0.00136     0.77671
      H   42    0.22138      0.00000     0.77750    0.00112     0.77862
      H   43    0.20751      0.00000     0.79079    0.00170     0.79249
      H   44    0.24930      0.00000     0.74938    0.00132     0.75070
      H   45    0.21956      0.00000     0.77935    0.00109     0.78044
      H   46    0.21448      0.00000     0.78406    0.00146     0.78552
      H   47    0.28068      0.00000     0.71778    0.00153     0.71932
      C   48   -0.62129      1.99944     4.60981    0.01205     6.62129
      H   49    0.22191      0.00000     0.77635    0.00174     0.77809
      C   50   -0.62357      1.99945     4.61257    0.01156     6.62357
      H   51    0.22879      0.00000     0.76971    0.00151     0.77121
      H   52    0.19960      0.00000     0.79875    0.00165     0.80040
      H   53    0.22018      0.00000     0.77833    0.00150     0.77982
      H   54    0.22957      0.00000     0.76892    0.00151     0.77043
      H   55    0.22340      0.00000     0.77525    0.00135     0.77660
      H   56    0.21200      0.00000     0.78633    0.00168     0.78800
      H   57    0.22141      0.00000     0.77745    0.00114     0.77859
      H   58    0.21633      0.00000     0.78231    0.00136     0.78367
      H   59    0.20614      0.00000     0.79285    0.00101     0.79386
      H   60    0.25444      0.00000     0.74432    0.00125     0.74556
 =======================================================================
   * Total *    0.00000    137.95126   161.32012    0.72862   300.00000

 Normal termination of Gaussian 09 at Sun Dec  5 03:36:08 2021.
