 Gaussian 09, Revision E.01,

 ----------------------------------------------------------------------
 # PBE1PBE gen pseudo=read int=(grid=ultrafine) empiricaldispersion=GD3
 BJ nmr=giao
 ----------------------------------------------------------------------

 -----------------------
 RR_Me_Ferrolane_1 title
 -----------------------
 Symbolic Z-matrix:
 Charge =  0 Multiplicity = 1

 SCF Done:  E(RPBE1PBE) =  -2711.51384130     A.U. after   26 cycles

      1  Fe   Isotropic = -5811.7335   Anisotropy =  7793.1159

      2  P    Isotropic =   211.4817   Anisotropy =   127.9293

      3  P    Isotropic =   211.4198   Anisotropy =   127.9710

      4  C    Isotropic =   106.5973   Anisotropy =    83.1996

      5  C    Isotropic =   104.7808   Anisotropy =    86.5608

      6  C    Isotropic =   106.4838   Anisotropy =    90.7668

      7  C    Isotropic =   110.3109   Anisotropy =    87.9215

      8  C    Isotropic =   107.1780   Anisotropy =    79.4607

      9  C    Isotropic =   106.5848   Anisotropy =    83.2240

     10  C    Isotropic =   107.1743   Anisotropy =    79.4500

     11  C    Isotropic =   110.3083   Anisotropy =    87.9199

     12  C    Isotropic =   106.4839   Anisotropy =    90.7761

     13  C    Isotropic =   104.7676   Anisotropy =    86.5632

     14  C    Isotropic =   138.6248   Anisotropy =    31.5152

     15  C    Isotropic =   147.7143   Anisotropy =    29.8273

     16  C    Isotropic =   143.9551   Anisotropy =    29.1851

     17  C    Isotropic =   147.0516   Anisotropy =    26.8219

     18  C    Isotropic =   138.6382   Anisotropy =    31.4766

     19  C    Isotropic =   147.7182   Anisotropy =    29.8332

     20  C    Isotropic =   143.9610   Anisotropy =    29.2090

     21  C    Isotropic =   147.0566   Anisotropy =    26.8356

     22  H    Isotropic =    27.1913   Anisotropy =     4.3420

     23  H    Isotropic =    27.1904   Anisotropy =     8.2126

     24  H    Isotropic =    27.3341   Anisotropy =     9.3826

     25  H    Isotropic =    27.5683   Anisotropy =     5.1827

     26  H    Isotropic =    27.5689   Anisotropy =     5.1820

     27  H    Isotropic =    27.1906   Anisotropy =     4.3444

     28  Cl   Isotropic =   889.9732   Anisotropy =   404.2313

     29  Cl   Isotropic =   889.7587   Anisotropy =   403.7195

     30  Pd   Isotropic =  -147.7337   Anisotropy =   247.5311

     31  H    Isotropic =    26.8651   Anisotropy =     9.0886

     32  C    Isotropic =   170.2722   Anisotropy =    19.1815

     33  H    Isotropic =    28.8604   Anisotropy =     6.0012

     34  C    Isotropic =   163.8616   Anisotropy =    20.2898

     35  H    Isotropic =    29.5677   Anisotropy =    12.7321

     36  H    Isotropic =    30.2192   Anisotropy =     6.8320

     37  H    Isotropic =    29.3558   Anisotropy =    12.0577

     38  H    Isotropic =    29.4755   Anisotropy =     7.6761

     39  H    Isotropic =    27.3343   Anisotropy =     9.3828

     40  H    Isotropic =    27.1902   Anisotropy =     8.2129

     41  H    Isotropic =    30.1401   Anisotropy =     7.8354

     42  H    Isotropic =    31.3767   Anisotropy =     5.8319

     43  H    Isotropic =    30.4076   Anisotropy =    13.7222

     44  H    Isotropic =    29.8069   Anisotropy =     5.8589

     45  H    Isotropic =    28.4805   Anisotropy =     6.5133

     46  H    Isotropic =    30.0288   Anisotropy =    12.5815

     47  H    Isotropic =    26.8612   Anisotropy =     9.1003

     48  C    Isotropic =   170.2834   Anisotropy =    19.1932

     49  H    Isotropic =    28.8601   Anisotropy =     5.9958

     50  C    Isotropic =   163.8445   Anisotropy =    20.2798

     51  H    Isotropic =    29.5683   Anisotropy =    12.7336

     52  H    Isotropic =    30.2180   Anisotropy =     6.8255

     53  H    Isotropic =    29.3547   Anisotropy =    12.0554

     54  H    Isotropic =    29.4785   Anisotropy =     7.6863

     55  H    Isotropic =    31.3772   Anisotropy =     5.8337

     56  H    Isotropic =    30.4082   Anisotropy =    13.7242

     57  H    Isotropic =    30.1397   Anisotropy =     7.8375

     58  H    Isotropic =    28.4808   Anisotropy =     6.5097

     59  H    Isotropic =    30.0287   Anisotropy =    12.5799

     60  H    Isotropic =    29.8061   Anisotropy =     5.8578

 Normal termination of Gaussian 09 at Sun Dec  5 03:26:15 2021.
 Gaussian 09:  ES64L-G09RevE.01 30-Nov-2015

 ----------------------------------------------------------------------
 # PBE1PBE gen pseudo=read int=(grid=ultrafine) empiricaldispersion=GD3
 BJ pop=nbo guess=read geom=check
 ----------------------------------------------------------------------

 -----------------------
 RR_Me_Ferrolane_1 title
 -----------------------
 Structure from the checkpoint file:  "RR_Me_Ferrolane_1_SPE.chk"
 Charge =  0 Multiplicity = 1

                         Standard orientation:
 ---------------------------------------------------------------------
 Center     Atomic      Atomic             Coordinates (Angstroms)
 Number     Number       Type             X           Y           Z
 ---------------------------------------------------------------------
      1         26           0       -0.001515    2.612033   -0.000398
      2         15           0        1.786504   -0.257889    0.016322
      3         15           0       -1.786142   -0.259941   -0.016006
      4          6           0        1.514207    1.449473    0.595473
      5          6           0        0.665133    1.782544    1.719644
      6          6           0        0.634543    3.209034    1.861173
      7          6           0        1.472463    3.775227    0.844010
      8          6           0        2.024459    2.700298    0.068678
      9          6           0       -1.515815    1.447502   -0.595777
     10          6           0       -2.027562    2.697908   -0.069432
     11          6           0       -1.476876    3.773197   -0.845200
     12          6           0       -0.638318    3.207614   -1.862184
     13          6           0       -0.667214    1.781142   -1.720128
     14          6           0        3.293604   -0.754334    1.025127
     15          6           0        4.454329   -0.178852    0.191876
     16          6           0        2.709762   -0.087221   -1.619174
     17          6           0        4.162349   -0.510141   -1.279840
     18          6           0       -3.293760   -0.757711   -1.023281
     19          6           0       -4.453995   -0.181962   -0.189559
     20          6           0       -2.708031   -0.089961    1.620325
     21          6           0       -4.161017   -0.512544    1.282124
     22          1           0        0.103502    1.062766    2.315286
     23          1           0        0.036797    3.765349    2.583930
     24          1           0        1.623050    4.838621    0.653910
     25          1           0        2.673529    2.816945   -0.798982
     26          1           0       -2.676761    2.814063    0.798200
     27          1           0       -0.104749    1.061766   -2.315475
     28         17           0        1.684383   -3.405616   -0.174382
     29         17           0       -1.680897   -3.407222    0.173047
     30         46           0        0.000907   -1.707495   -0.000406
     31          1           0        3.303507   -1.855693    0.950610
     32          6           0        3.260771   -0.333367    2.492721
     33          1           0        2.682753    0.988078   -1.872047
     34          6           0        2.098856   -0.896385   -2.768109
     35          1           0        5.416460   -0.608724    0.524925
     36          1           0        4.519131    0.917371    0.340461
     37          1           0        4.876485   -0.025629   -1.969225
     38          1           0        4.246210   -1.602222   -1.426887
     39          1           0       -1.628699    4.836486   -0.655490
     40          1           0       -0.041271    3.764377   -2.585174
     41          1           0        2.395115   -0.773184    3.017120
     42          1           0        3.215682    0.763348    2.606582
     43          1           0        4.173455   -0.690828    3.001390
     44          1           0        1.079387   -0.558087   -3.020503
     45          1           0        2.036642   -1.963172   -2.497472
     46          1           0        2.725209   -0.791985   -3.672393
     47          1           0       -3.303192   -1.859034   -0.947976
     48          6           0       -3.262089   -0.337801   -2.491199
     49          1           0       -2.680497    0.985161    1.873880
     50          6           0       -2.096184   -0.900052    2.768134
     51          1           0       -5.416305   -0.612106   -0.521742
     52          1           0       -4.519035    0.914172   -0.338641
     53          1           0       -4.874580   -0.027551    1.971759
     54          1           0       -4.245122   -1.604532    1.429750
     55          1           0       -3.217399    0.758848   -2.605873
     56          1           0       -4.175017   -0.695886   -2.998987
     57          1           0       -2.396650   -0.777754   -3.015835
     58          1           0       -2.034565   -1.966693    2.496763
     59          1           0       -2.721516   -0.796016    3.673167
     60          1           0       -1.076297   -0.562310    3.019581
 ---------------------------------------------------------------------

 SCF Done:  E(RPBE1PBE) =  -2711.51384130     A.U. after    1 cycles

 The electronic state is 1-A.
 Alpha  occ. eigenvalues -- -101.61786-101.61785 -77.25467 -77.25466 -10.27071
 Alpha  occ. eigenvalues --  -10.27070 -10.26779 -10.26778 -10.26516 -10.26516
 Alpha  occ. eigenvalues --  -10.26482 -10.26482 -10.26446 -10.26445 -10.25666
 Alpha  occ. eigenvalues --  -10.25666 -10.24293 -10.24292 -10.23585 -10.23584
 Alpha  occ. eigenvalues --  -10.23526 -10.23523 -10.22327 -10.22325 -10.22023
 Alpha  occ. eigenvalues --  -10.22023  -9.44302  -9.44301  -7.17481  -7.17479
 Alpha  occ. eigenvalues --   -7.17032  -7.17030  -7.16990  -7.16988  -6.64722
 Alpha  occ. eigenvalues --   -6.64722  -4.78337  -4.78337  -4.78241  -4.78240
 Alpha  occ. eigenvalues --   -4.78063  -4.78063  -3.63086  -3.51986  -2.27643
 Alpha  occ. eigenvalues --   -2.23421  -2.23362  -2.19838  -2.19493  -2.16234
 Alpha  occ. eigenvalues --   -0.94537  -0.92511  -0.86828  -0.86770  -0.79970
 Alpha  occ. eigenvalues --   -0.79938  -0.77400  -0.77119  -0.76157  -0.76099
 Alpha  occ. eigenvalues --   -0.74925  -0.74534  -0.74174  -0.73851  -0.68396
 Alpha  occ. eigenvalues --   -0.68324  -0.66616  -0.66601  -0.60318  -0.59963
 Alpha  occ. eigenvalues --   -0.59632  -0.59278  -0.58385  -0.58210  -0.57731
 Alpha  occ. eigenvalues --   -0.56755  -0.52667  -0.52389  -0.49783  -0.49318
 Alpha  occ. eigenvalues --   -0.48715  -0.48538  -0.45992  -0.45825  -0.45784
 Alpha  occ. eigenvalues --   -0.44967  -0.44391  -0.44095  -0.43872  -0.43167
 Alpha  occ. eigenvalues --   -0.43073  -0.43028  -0.42446  -0.42370  -0.42305
 Alpha  occ. eigenvalues --   -0.41926  -0.41900  -0.40289  -0.39877  -0.39535
 Alpha  occ. eigenvalues --   -0.38717  -0.38595  -0.37052  -0.36850  -0.35988
 Alpha  occ. eigenvalues --   -0.35789  -0.35243  -0.35158  -0.35118  -0.35028
 Alpha  occ. eigenvalues --   -0.34692  -0.34680  -0.33978  -0.33402  -0.32933
 Alpha  occ. eigenvalues --   -0.31507  -0.31410  -0.30768  -0.30088  -0.29646
 Alpha  occ. eigenvalues --   -0.29221  -0.28481  -0.28218  -0.27229  -0.26041
 Alpha  occ. eigenvalues --   -0.25312  -0.25138  -0.25130  -0.24709  -0.24134
 Alpha  occ. eigenvalues --   -0.24091
 Alpha virt. eigenvalues --   -0.07325  -0.02625  -0.02587  -0.01819  -0.01767
 Alpha virt. eigenvalues --    0.00195   0.00712   0.01511   0.01768   0.02059
 Alpha virt. eigenvalues --    0.02788   0.03013   0.03217   0.03885   0.04411

 Mulliken charges:
               1
     1  Fe  -0.557149
     2  P    0.139687
     3  P    0.139822
     4  C    0.100721
     5  C   -0.112721
     6  C   -0.012282
     7  C   -0.119942
     8  C   -0.076581
     9  C    0.100343
    10  C   -0.076544
    11  C   -0.119838
    12  C   -0.012275
    13  C   -0.112368
    14  C   -0.061437
    15  C   -0.221211
    16  C   -0.088063
    17  C   -0.191317
    18  C   -0.061382
    19  C   -0.221303
    20  C   -0.088158
    21  C   -0.191378
    22  H    0.095489
    23  H    0.127058
    24  H    0.125050
    25  H    0.135837
    26  H    0.135886
    27  H    0.095275
    28  Cl  -0.427893
    29  Cl  -0.427868
    30  Pd   0.195162
    31  H    0.150036
    32  C   -0.405180
    33  H    0.095363
    34  C   -0.387084
    35  H    0.119925
    36  H    0.111796
    37  H    0.114164
    38  H    0.131416
    39  H    0.125053
    40  H    0.127062
    41  H    0.143139
    42  H    0.137466
    43  H    0.134294
    44  H    0.124560
    45  H    0.171700
    46  H    0.126948
    47  H    0.150004
    48  C   -0.405217
    49  H    0.095511
    50  C   -0.387039
    51  H    0.119909
    52  H    0.111866
    53  H    0.114171
    54  H    0.131351
    55  H    0.137469
    56  H    0.134273
    57  H    0.143206
    58  H    0.171669
    59  H    0.126981
    60  H    0.124569
 Sum of Mulliken charges =  -0.00000

 Dipole moment (field-independent basis, Debye):
    X=             -0.0062    Y=             11.5494    Z=              0.0034  Tot=             11.5494
 Quadrupole moment (field-independent basis, Debye-Ang):
   XX=           -204.1195   YY=           -243.6002   ZZ=           -212.5325
   XY=              0.0203   XZ=             -5.7410   YZ=             -0.0151

 Summary of Natural Population Analysis:

                                       Natural Population
                Natural  -----------------------------------------------
    Atom  No    Charge         Core      Valence    Rydberg      Total
 -----------------------------------------------------------------------
     Fe    1   -0.33978     17.99206     8.31341    0.03431    26.33978
      P    2    1.17592      9.99598     3.77620    0.05189    13.82408
      P    3    1.17608      9.99598     3.77604    0.05190    13.82392
      C    4   -0.36378      1.99851     4.31996    0.04531     6.36378
      C    5   -0.19101      1.99864     4.16725    0.02511     6.19101
      C    6   -0.19822      1.99877     4.17630    0.02315     6.19822
      C    7   -0.20091      1.99877     4.17934    0.02280     6.20091
      C    8   -0.19964      1.99866     4.17554    0.02544     6.19964
      C    9   -0.36381      1.99851     4.31999    0.04531     6.36381
      C   10   -0.19965      1.99866     4.17554    0.02545     6.19965
      C   11   -0.20090      1.99877     4.17933    0.02280     6.20090
      C   12   -0.19822      1.99877     4.17630    0.02315     6.19822
      C   13   -0.19098      1.99864     4.16722    0.02511     6.19098
      C   14   -0.50063      1.99942     4.47423    0.02698     6.50063
      C   15   -0.41479      1.99941     4.40062    0.01476     6.41479
      C   16   -0.48661      1.99942     4.46346    0.02372     6.48661
      C   17   -0.41432      1.99943     4.40072    0.01417     6.41432
      C   18   -0.50069      1.99942     4.47429    0.02698     6.50069
      C   19   -0.41481      1.99941     4.40064    0.01476     6.41481
      C   20   -0.48670      1.99942     4.46355    0.02372     6.48670
      C   21   -0.41430      1.99943     4.40070    0.01417     6.41430
      H   22    0.25253      0.00000     0.74444    0.00302     0.74747
      H   23    0.25100      0.00000     0.74769    0.00131     0.74900
      H   24    0.25114      0.00000     0.74758    0.00128     0.74886
      H   25    0.24754      0.00000     0.75071    0.00175     0.75246
      H   26    0.24756      0.00000     0.75069    0.00175     0.75244
      H   27    0.25253      0.00000     0.74445    0.00303     0.74747
     Cl   28   -0.44128      9.99965     7.43159    0.01004    17.44128
     Cl   29   -0.44116      9.99965     7.43148    0.01004    17.44116
     Pd   30   -0.13733     35.98788    10.12179    0.02766    46.13733
      H   31    0.28115      0.00000     0.71729    0.00157     0.71885
      C   32   -0.62162      1.99943     4.61013    0.01206     6.62162
      H   33    0.22318      0.00000     0.77509    0.00173     0.77682
      C   34   -0.62360      1.99945     4.61258    0.01157     6.62360
      H   35    0.22894      0.00000     0.76956    0.00150     0.77106
      H   36    0.20024      0.00000     0.79811    0.00165     0.79976
      H   37    0.22042      0.00000     0.77810    0.00148     0.77958
      H   38    0.22737      0.00000     0.77109    0.00153     0.77263
      H   39    0.25113      0.00000     0.74759    0.00128     0.74887
      H   40    0.25100      0.00000     0.74769    0.00131     0.74900
      H   41    0.22335      0.00000     0.77552    0.00113     0.77665
      H   42    0.21187      0.00000     0.78648    0.00165     0.78813
      H   43    0.22316      0.00000     0.77551    0.00133     0.77684
      H   44    0.20688      0.00000     0.79207    0.00104     0.79312
      H   45    0.25370      0.00000     0.74504    0.00126     0.74630
      H   46    0.21647      0.00000     0.78218    0.00135     0.78353
      H   47    0.28117      0.00000     0.71726    0.00157     0.71883
      C   48   -0.62163      1.99943     4.61013    0.01206     6.62163
      H   49    0.22322      0.00000     0.77506    0.00173     0.77678
      C   50   -0.62362      1.99945     4.61261    0.01157     6.62362
      H   51    0.22894      0.00000     0.76955    0.00150     0.77106
      H   52    0.20025      0.00000     0.79810    0.00165     0.79975
      H   53    0.22043      0.00000     0.77809    0.00148     0.77957
      H   54    0.22731      0.00000     0.77116    0.00153     0.77269
      H   55    0.21186      0.00000     0.78649    0.00165     0.78814
      H   56    0.22315      0.00000     0.77552    0.00133     0.77685
      H   57    0.22339      0.00000     0.77548    0.00113     0.77661
      H   58    0.25370      0.00000     0.74505    0.00126     0.74630
      H   59    0.21646      0.00000     0.78219    0.00135     0.78354
      H   60    0.20693      0.00000     0.79202    0.00105     0.79307
 =======================================================================
   * Total *   -0.00000    137.95104   161.32380    0.72516   300.00000

 Normal termination of Gaussian 09 at Sun Dec  5 03:29:39 2021.
