 Gaussian 09, Revision E.01,

 ----------------------------------------------------------------------
 # PBE1PBE gen pseudo=read int=(grid=ultrafine) empiricaldispersion=GD3
 BJ nmr=giao
 ----------------------------------------------------------------------

 -----------------------
 RR_Me_Ferrolane_1 title
 -----------------------
 Symbolic Z-matrix:
 Charge =  0 Multiplicity = 1

 SCF Done:  E(RPBE1PBE) =  -1663.30770680     A.U. after   19 cycles

      1  Fe   Isotropic = -5835.8469   Anisotropy =  7909.5398

      2  P    Isotropic =   297.5232   Anisotropy =    63.0524

      3  P    Isotropic =   297.4549   Anisotropy =    63.0102

      4  C    Isotropic =   103.5059   Anisotropy =    90.4741

      5  C    Isotropic =   105.6074   Anisotropy =    84.3781

      6  C    Isotropic =   108.4515   Anisotropy =    88.2520

      7  C    Isotropic =   109.8730   Anisotropy =    88.4525

      8  C    Isotropic =   111.9345   Anisotropy =    83.5078

      9  C    Isotropic =   103.5111   Anisotropy =    90.4843

     10  C    Isotropic =   111.9285   Anisotropy =    83.4790

     11  C    Isotropic =   109.8689   Anisotropy =    88.4541

     12  C    Isotropic =   108.4528   Anisotropy =    88.2605

     13  C    Isotropic =   105.5955   Anisotropy =    84.3757

     14  C    Isotropic =   145.4650   Anisotropy =    22.0680

     15  C    Isotropic =   146.4784   Anisotropy =    31.5446

     16  C    Isotropic =   148.0628   Anisotropy =    27.6425

     17  C    Isotropic =   145.7226   Anisotropy =    33.2379

     18  C    Isotropic =   145.4688   Anisotropy =    22.0671

     19  C    Isotropic =   146.4798   Anisotropy =    31.5485

     20  C    Isotropic =   148.0647   Anisotropy =    27.6498

     21  C    Isotropic =   145.7250   Anisotropy =    33.2379

     22  H    Isotropic =    27.4310   Anisotropy =     6.0972

     23  H    Isotropic =    27.4047   Anisotropy =     7.6075

     24  H    Isotropic =    27.4045   Anisotropy =     8.6505

     25  H    Isotropic =    27.7113   Anisotropy =     3.9009

     26  H    Isotropic =    27.7127   Anisotropy =     3.8994

     27  H    Isotropic =    27.4306   Anisotropy =     6.1017

     28  H    Isotropic =    29.7634   Anisotropy =     8.6969

     29  C    Isotropic =   170.0853   Anisotropy =    19.8102

     30  H    Isotropic =    28.7882   Anisotropy =     5.3583

     31  C    Isotropic =   163.1954   Anisotropy =    27.3288

     32  H    Isotropic =    29.7143   Anisotropy =    12.1646

     33  H    Isotropic =    30.1021   Anisotropy =     5.0819

     34  H    Isotropic =    29.1803   Anisotropy =    10.6990

     35  H    Isotropic =    30.2739   Anisotropy =     9.1445

     36  H    Isotropic =    27.4046   Anisotropy =     8.6508

     37  H    Isotropic =    27.4046   Anisotropy =     7.6080

     38  H    Isotropic =    30.3737   Anisotropy =     9.3185

     39  H    Isotropic =    31.3179   Anisotropy =     6.3209

     40  H    Isotropic =    30.5104   Anisotropy =    12.7612

     41  H    Isotropic =    29.5725   Anisotropy =     7.6368

     42  H    Isotropic =    30.2124   Anisotropy =     7.8294

     43  H    Isotropic =    29.9439   Anisotropy =    11.2237

     44  H    Isotropic =    29.7640   Anisotropy =     8.6986

     45  C    Isotropic =   170.0939   Anisotropy =    19.8229

     46  H    Isotropic =    28.7876   Anisotropy =     5.3577

     47  C    Isotropic =   163.1847   Anisotropy =    27.3370

     48  H    Isotropic =    29.7146   Anisotropy =    12.1658

     49  H    Isotropic =    30.1004   Anisotropy =     5.0757

     50  H    Isotropic =    29.1794   Anisotropy =    10.6960

     51  H    Isotropic =    30.2743   Anisotropy =     9.1466

     52  H    Isotropic =    31.3183   Anisotropy =     6.3238

     53  H    Isotropic =    30.5106   Anisotropy =    12.7626

     54  H    Isotropic =    30.3735   Anisotropy =     9.3232

     55  H    Isotropic =    30.2130   Anisotropy =     7.8293

     56  H    Isotropic =    29.9439   Anisotropy =    11.2225

     57  H    Isotropic =    29.5727   Anisotropy =     7.6415

 Normal termination of Gaussian 09 at Sun Dec  5 02:53:03 2021.
 Gaussian 09:  ES64L-G09RevE.01 30-Nov-2015

 ----------------------------------------------------------------------
 # PBE1PBE gen pseudo=read int=(grid=ultrafine) empiricaldispersion=GD3
 BJ pop=nbo guess=read geom=check
 ----------------------------------------------------------------------

 -----------------------
 RR_Me_Ferrolane_1 title
 -----------------------
 Structure from the checkpoint file:  "RR_Me_Ferrolane_1_SPE_NoPd.chk"
 Charge =  0 Multiplicity = 1

                         Standard orientation:
 ---------------------------------------------------------------------
 Center     Atomic      Atomic             Coordinates (Angstroms)
 Number     Number       Type             X           Y           Z
 ---------------------------------------------------------------------
      1         26           0        0.000372    1.728565   -0.001485
      2         15           0       -1.786577   -1.142067    0.004761
      3         15           0        1.786210   -1.142698   -0.001964
      4          6           0       -1.521309    0.564707   -0.579366
      5          6           0       -0.684706    0.896761   -1.713147
      6          6           0       -0.656236    2.323094   -1.856701
      7          6           0       -1.483213    2.890178   -0.831115
      8          6           0       -2.026272    1.815963   -0.048516
      9          6           0        1.521554    0.565331    0.578693
     10          6           0        2.027018    1.815306    0.045295
     11          6           0        1.484414    2.891308    0.825756
     12          6           0        0.657249    2.326617    1.852518
     13          6           0        0.685160    0.899988    1.711854
     14          6           0       -3.304414   -1.640300   -0.986917
     15          6           0       -4.456192   -1.064271   -0.141715
     16          6           0       -2.691970   -0.969800    1.650047
     17          6           0       -4.148011   -1.393687    1.327116
     18          6           0        3.304947   -1.638681    0.989362
     19          6           0        4.455769   -1.063481    0.142323
     20          6           0        2.690090   -0.974318   -1.648476
     21          6           0        4.146854   -1.395935   -1.325676
     22          1           0       -0.129332    0.176490   -2.314035
     23          1           0       -0.066648    2.878775   -2.586612
     24          1           0       -1.632138    3.953740   -0.640648
     25          1           0       -2.665865    1.933397    0.826049
     26          1           0        2.666647    1.930674   -0.829518
     27          1           0        0.129525    0.181107    2.314171
     28          1           0       -3.313062   -2.741572   -0.910985
     29          6           0       -3.287794   -1.221076   -2.455283
     30          1           0       -2.662628    0.105811    1.901328
     31          6           0       -2.068218   -1.777353    2.793198
     32          1           0       -5.421734   -1.494912   -0.463714
     33          1           0       -4.523052    0.031748   -0.290888
     34          1           0       -4.854762   -0.908627    2.023688
     35          1           0       -4.229822   -2.485623    1.476372
     36          1           0        1.633729    3.954428    0.633131
     37          1           0        0.067918    2.884014    2.581328
     38          1           0       -2.427746   -1.661184   -2.988589
     39          1           0       -3.244391   -0.124480   -2.570937
     40          1           0       -4.205841   -1.579497   -2.953519
     41          1           0       -1.046187   -1.438360    3.034030
     42          1           0       -2.008540   -2.844439    2.523169
     43          1           0       -2.684691   -1.672114    3.704150
     44          1           0        3.313996   -2.740089    0.915271
     45          6           0        3.289156   -1.217028    2.457038
     46          1           0        2.659356    0.100488   -1.902996
     47          6           0        2.066057   -1.786018   -2.788563
     48          1           0        5.421825   -1.492855    0.464479
     49          1           0        4.521997    0.032856    0.289378
     50          1           0        4.852643   -0.911491   -2.023646
     51          1           0        4.229777   -2.488067   -1.472911
     52          1           0        3.245284   -0.120261    2.570887
     53          1           0        4.207722   -1.574153    2.955243
     54          1           0        2.429679   -1.656688    2.991627
     55          1           0        2.007834   -2.852358   -2.515263
     56          1           0        2.681417   -1.682822   -3.700500
     57          1           0        1.043347   -1.448972   -3.029248
 ---------------------------------------------------------------------

 SCF Done:  E(RPBE1PBE) =  -1663.30770681     A.U. after    2 cycles

 The electronic state is 1-A.
 Alpha  occ. eigenvalues --  -77.17699 -77.17697 -10.23773 -10.23773 -10.23747
 Alpha  occ. eigenvalues --  -10.23746 -10.23715 -10.23715 -10.23563 -10.23563
 Alpha  occ. eigenvalues --  -10.23543 -10.23542 -10.22947 -10.22946 -10.22357
 Alpha  occ. eigenvalues --  -10.22356 -10.22058 -10.22058 -10.21699 -10.21697
 Alpha  occ. eigenvalues --  -10.21368 -10.21368 -10.20921 -10.20920  -6.57361
 Alpha  occ. eigenvalues --   -6.57360  -4.70964  -4.70962  -4.70909  -4.70907
 Alpha  occ. eigenvalues --   -4.70482  -4.70480  -3.60052  -2.24628  -2.20359
 Alpha  occ. eigenvalues --   -2.20347  -0.91533  -0.89515  -0.84568  -0.84540
 Alpha  occ. eigenvalues --   -0.78235  -0.78211  -0.74293  -0.74089  -0.73277
 Alpha  occ. eigenvalues --   -0.73228  -0.72738  -0.72662  -0.65241  -0.65211
 Alpha  occ. eigenvalues --   -0.65157  -0.65148  -0.57892  -0.57885  -0.57217
 Alpha  occ. eigenvalues --   -0.56444  -0.55857  -0.55432  -0.55139  -0.54002
 Alpha  occ. eigenvalues --   -0.49679  -0.49539  -0.47509  -0.47302  -0.46220
 Alpha  occ. eigenvalues --   -0.46010  -0.43870  -0.43848  -0.43182  -0.42492
 Alpha  occ. eigenvalues --   -0.42410  -0.42170  -0.41867  -0.41311  -0.41200
 Alpha  occ. eigenvalues --   -0.40763  -0.40577  -0.39984  -0.39764  -0.39326
 Alpha  occ. eigenvalues --   -0.39193  -0.37534  -0.37490  -0.36995  -0.36689
 Alpha  occ. eigenvalues --   -0.36466  -0.34007  -0.33968  -0.33636  -0.33587
 Alpha  occ. eigenvalues --   -0.33298  -0.33272  -0.32507  -0.32285  -0.30361
 Alpha  occ. eigenvalues --   -0.29979  -0.28312  -0.27881  -0.26792  -0.26585
 Alpha  occ. eigenvalues --   -0.24993  -0.22376  -0.22333  -0.22113  -0.18700
 Alpha virt. eigenvalues --   -0.00368   0.00234   0.00294   0.01870   0.02218
 Alpha virt. eigenvalues --    0.02380   0.03415   0.04344   0.04735   0.05051
 Alpha virt. eigenvalues --    0.05341   0.05835   0.06290   0.06467   0.06887

 Mulliken charges:
               1
     1  Fe  -0.551272
     2  P    0.036071
     3  P    0.036047
     4  C    0.152330
     5  C   -0.113863
     6  C   -0.045799
     7  C   -0.097925
     8  C   -0.124938
     9  C    0.152076
    10  C   -0.124954
    11  C   -0.097825
    12  C   -0.045782
    13  C   -0.113586
    14  C   -0.073743
    15  C   -0.188488
    16  C   -0.107369
    17  C   -0.188110
    18  C   -0.073690
    19  C   -0.188504
    20  C   -0.107473
    21  C   -0.188231
    22  H    0.085819
    23  H    0.117021
    24  H    0.114476
    25  H    0.120222
    26  H    0.120286
    27  H    0.085595
    28  H    0.096711
    29  C   -0.396081
    30  H    0.087302
    31  C   -0.364910
    32  H    0.097847
    33  H    0.109918
    34  H    0.107642
    35  H    0.096862
    36  H    0.114479
    37  H    0.117026
    38  H    0.122553
    39  H    0.144411
    40  H    0.121976
    41  H    0.123327
    42  H    0.121086
    43  H    0.121329
    44  H    0.096687
    45  C   -0.396090
    46  H    0.087456
    47  C   -0.364952
    48  H    0.097815
    49  H    0.109983
    50  H    0.107636
    51  H    0.096867
    52  H    0.144415
    53  H    0.121967
    54  H    0.122570
    55  H    0.121060
    56  H    0.121359
    57  H    0.123358
 Sum of Mulliken charges =  -0.00000

 Dipole moment (field-independent basis, Debye):
    X=             -0.0009    Y=              1.2848    Z=             -0.0023  Tot=              1.2848
 Quadrupole moment (field-independent basis, Debye-Ang):
   XX=           -172.1419   YY=           -170.5546   ZZ=           -173.2328
   XY=             -0.0052   XZ=             -6.7640   YZ=              0.0013

 Summary of Natural Population Analysis:

                                       Natural Population
                Natural  -----------------------------------------------
    Atom  No    Charge         Core      Valence    Rydberg      Total
 -----------------------------------------------------------------------
     Fe    1   -0.34068     17.99230     8.31228    0.03610    26.34068
      P    2    0.81128      9.99822     4.16227    0.02823    14.18872
      P    3    0.81131      9.99822     4.16224    0.02823    14.18869
      C    4   -0.32260      1.99851     4.28327    0.04082     6.32260
      C    5   -0.20103      1.99864     4.17675    0.02564     6.20103
      C    6   -0.20730      1.99877     4.18533    0.02320     6.20730
      C    7   -0.20727      1.99877     4.18544    0.02306     6.20727
      C    8   -0.21739      1.99865     4.19389    0.02485     6.21739
      C    9   -0.32263      1.99851     4.28330    0.04082     6.32263
      C   10   -0.21739      1.99865     4.19389    0.02485     6.21739
      C   11   -0.20726      1.99877     4.18543    0.02306     6.20726
      C   12   -0.20730      1.99877     4.18533    0.02320     6.20730
      C   13   -0.20099      1.99864     4.17672    0.02564     6.20099
      C   14   -0.47352      1.99946     4.44822    0.02584     6.47352
      C   15   -0.41339      1.99943     4.39927    0.01469     6.41339
      C   16   -0.48476      1.99947     4.46280    0.02249     6.48476
      C   17   -0.41066      1.99944     4.39695    0.01427     6.41066
      C   18   -0.47355      1.99946     4.44825    0.02584     6.47355
      C   19   -0.41341      1.99943     4.39929    0.01469     6.41341
      C   20   -0.48482      1.99947     4.46286    0.02249     6.48482
      C   21   -0.41067      1.99944     4.39696    0.01427     6.41067
      H   22    0.24496      0.00000     0.75202    0.00302     0.75504
      H   23    0.24493      0.00000     0.75375    0.00131     0.75507
      H   24    0.24413      0.00000     0.75453    0.00134     0.75587
      H   25    0.24052      0.00000     0.75761    0.00187     0.75948
      H   26    0.24054      0.00000     0.75759    0.00187     0.75946
      H   27    0.24494      0.00000     0.75203    0.00303     0.75506
      H   28    0.22061      0.00000     0.77797    0.00142     0.77939
      C   29   -0.61925      1.99945     4.60721    0.01259     6.61925
      H   30    0.21842      0.00000     0.77953    0.00205     0.78158
      C   31   -0.60860      1.99945     4.59745    0.01169     6.60860
      H   32    0.21075      0.00000     0.78733    0.00193     0.78925
      H   33    0.20515      0.00000     0.79320    0.00165     0.79485
      H   34    0.21621      0.00000     0.78226    0.00153     0.78379
      H   35    0.20154      0.00000     0.79664    0.00182     0.79846
      H   36    0.24413      0.00000     0.75453    0.00134     0.75587
      H   37    0.24493      0.00000     0.75375    0.00131     0.75507
      H   38    0.21566      0.00000     0.78314    0.00120     0.78434
      H   39    0.21864      0.00000     0.77974    0.00163     0.78136
      H   40    0.21161      0.00000     0.78686    0.00153     0.78839
      H   41    0.21017      0.00000     0.78872    0.00111     0.78983
      H   42    0.21248      0.00000     0.78605    0.00147     0.78752
      H   43    0.20903      0.00000     0.78956    0.00140     0.79097
      H   44    0.22062      0.00000     0.77797    0.00142     0.77938
      C   45   -0.61925      1.99945     4.60721    0.01259     6.61925
      H   46    0.21847      0.00000     0.77949    0.00205     0.78153
      C   47   -0.60862      1.99945     4.59748    0.01169     6.60862
      H   48    0.21074      0.00000     0.78733    0.00193     0.78926
      H   49    0.20516      0.00000     0.79319    0.00166     0.79484
      H   50    0.21621      0.00000     0.78226    0.00153     0.78379
      H   51    0.20154      0.00000     0.79664    0.00182     0.79846
      H   52    0.21863      0.00000     0.77974    0.00163     0.78137
      H   53    0.21161      0.00000     0.78686    0.00153     0.78839
      H   54    0.21567      0.00000     0.78313    0.00120     0.78433
      H   55    0.21247      0.00000     0.78606    0.00147     0.78753
      H   56    0.20904      0.00000     0.78956    0.00140     0.79096
      H   57    0.21020      0.00000     0.78869    0.00112     0.78980
 =======================================================================
   * Total *   -0.00000     81.96880   137.40778    0.62342   220.00000

 Normal termination of Gaussian 09 at Sun Dec  5 02:57:17 2021.
