 Gaussian 09, Revision E.01,

 ----------------------------------------------------------------------
 # PBE1PBE gen pseudo=read int=(grid=ultrafine) empiricaldispersion=GD3
 BJ nmr=giao
 ----------------------------------------------------------------------

 -----------------------
 RR_Me_Ferrolane_3 title
 -----------------------
 Symbolic Z-matrix:
 Charge =  0 Multiplicity = 1

 SCF Done:  E(RPBE1PBE) =  -1663.30577405     A.U. after   19 cycles

      1  Fe   Isotropic = -5890.7649   Anisotropy =  7920.7716

      2  P    Isotropic =   288.5269   Anisotropy =    79.4567

      3  P    Isotropic =   297.2313   Anisotropy =    60.5791

      4  C    Isotropic =   103.0043   Anisotropy =    93.0990

      5  C    Isotropic =   104.8500   Anisotropy =    84.0188

      6  C    Isotropic =   108.7261   Anisotropy =    88.3224

      7  C    Isotropic =   109.7018   Anisotropy =    88.2063

      8  C    Isotropic =   111.6497   Anisotropy =    81.7819

      9  C    Isotropic =   103.5859   Anisotropy =    89.6201

     10  C    Isotropic =   112.4763   Anisotropy =    83.6165

     11  C    Isotropic =   110.3104   Anisotropy =    87.9627

     12  C    Isotropic =   108.6294   Anisotropy =    88.0762

     13  C    Isotropic =   104.0780   Anisotropy =    87.1724

     14  C    Isotropic =   149.6875   Anisotropy =    22.8448

     15  C    Isotropic =   148.2039   Anisotropy =    38.1711

     16  C    Isotropic =   148.1245   Anisotropy =    21.9210

     17  C    Isotropic =   149.2614   Anisotropy =    34.3461

     18  C    Isotropic =   145.2878   Anisotropy =    22.1774

     19  C    Isotropic =   146.2412   Anisotropy =    31.5706

     20  C    Isotropic =   148.1216   Anisotropy =    27.2498

     21  C    Isotropic =   145.5718   Anisotropy =    33.1645

     22  H    Isotropic =    27.4624   Anisotropy =     6.4955

     23  H    Isotropic =    27.4100   Anisotropy =     7.5559

     24  H    Isotropic =    27.4348   Anisotropy =     8.4954

     25  H    Isotropic =    27.7416   Anisotropy =     3.6115

     26  H    Isotropic =    27.6972   Anisotropy =     3.9252

     27  H    Isotropic =    27.5090   Anisotropy =     5.7189

     28  H    Isotropic =    29.1976   Anisotropy =     9.0873

     29  C    Isotropic =   167.0061   Anisotropy =    19.4982

     30  H    Isotropic =    28.6052   Anisotropy =     7.0655

     31  C    Isotropic =   164.5263   Anisotropy =    33.7003

     32  H    Isotropic =    29.3462   Anisotropy =     9.9960

     33  H    Isotropic =    29.8080   Anisotropy =    11.8515

     34  H    Isotropic =    29.4022   Anisotropy =     7.3331

     35  H    Isotropic =    29.8310   Anisotropy =    11.2077

     36  H    Isotropic =    27.4448   Anisotropy =     8.5721

     37  H    Isotropic =    27.4034   Anisotropy =     7.4477

     38  H    Isotropic =    30.8158   Anisotropy =    13.2343

     39  H    Isotropic =    31.0214   Anisotropy =     6.6599

     40  H    Isotropic =    30.9469   Anisotropy =     4.2648

     41  H    Isotropic =    30.1456   Anisotropy =     7.7501

     42  H    Isotropic =    29.7867   Anisotropy =     7.8858

     43  H    Isotropic =    30.2661   Anisotropy =    12.0269

     44  H    Isotropic =    29.7471   Anisotropy =     8.6097

     45  C    Isotropic =   169.7846   Anisotropy =    19.3390

     46  H    Isotropic =    28.8235   Anisotropy =     5.4179

     47  C    Isotropic =   163.5615   Anisotropy =    27.2782

     48  H    Isotropic =    29.6934   Anisotropy =    12.1085

     49  H    Isotropic =    30.1267   Anisotropy =     5.2375

     50  H    Isotropic =    29.2003   Anisotropy =    10.7617

     51  H    Isotropic =    30.2585   Anisotropy =     9.0837

     52  H    Isotropic =    30.4924   Anisotropy =    12.6909

     53  H    Isotropic =    31.3088   Anisotropy =     6.1751

     54  H    Isotropic =    30.3670   Anisotropy =     9.1458

     55  H    Isotropic =    29.9449   Anisotropy =    11.2942

     56  H    Isotropic =    29.5938   Anisotropy =     7.2317

     57  H    Isotropic =    30.2097   Anisotropy =     7.9419

 Normal termination of Gaussian 09 at Sun Dec  5 03:02:49 2021.
 Gaussian 09:  ES64L-G09RevE.01 30-Nov-2015

 ----------------------------------------------------------------------
 # PBE1PBE gen pseudo=read int=(grid=ultrafine) empiricaldispersion=GD3
 BJ pop=nbo guess=read geom=check
 ----------------------------------------------------------------------

 -----------------------
 RR_Me_Ferrolane_3 title
 -----------------------
 Structure from the checkpoint file:  "RR_Me_Ferrolane_3_SPE_NoPd.chk"
 Charge =  0 Multiplicity = 1

                         Standard orientation:
 ---------------------------------------------------------------------
 Center     Atomic      Atomic             Coordinates (Angstroms)
 Number     Number       Type             X           Y           Z
 ---------------------------------------------------------------------
      1         26           0       -0.012444    1.711173   -0.221524
      2         15           0        1.768248   -1.098225    0.275224
      3         15           0       -1.807933   -1.122975    0.198328
      4          6           0        1.489124    0.671886    0.595993
      5          6           0        0.620215    1.187373    1.630537
      6          6           0        0.587043    2.617085    1.524262
      7          6           0        1.445692    3.004015    0.442004
      8          6           0        2.010184    1.814082   -0.128580
      9          6           0       -1.525006    0.466819   -0.647900
     10          6           0       -2.037371    1.788770   -0.346216
     11          6           0       -1.464073    2.718216   -1.277995
     12          6           0       -0.609856    1.988554   -2.170035
     13          6           0       -0.652156    0.605687   -1.793895
     14          6           0        3.342099   -1.502089    1.251628
     15          6           0        4.323341   -1.967844    0.150306
     16          6           0        2.573347   -1.138346   -1.427118
     17          6           0        4.087364   -1.119650   -1.112179
     18          6           0       -3.266655   -1.807157   -0.773850
     19          6           0       -4.471811   -1.144717   -0.079083
     20          6           0       -2.802273   -0.691667    1.743041
     21          6           0       -4.223559   -1.226066    1.434597
     22          1           0        0.043728    0.576690    2.325781
     23          1           0       -0.024752    3.287344    2.128906
     24          1           0        1.599752    4.020062    0.076526
     25          1           0        2.678332    1.777124   -0.989208
     26          1           0       -2.702195    2.050507    0.476599
     27          1           0       -0.089925   -0.207869   -2.253197
     28          1           0        3.083183   -2.347247    1.907559
     29          6           0        3.869448   -0.324435    2.079728
     30          1           0        2.264982   -0.220046   -1.956605
     31          6           0        2.130240   -2.364585   -2.238109
     32          1           0        4.124432   -3.030678   -0.069137
     33          1           0        5.366664   -1.885368    0.505288
     34          1           0        4.420849   -0.080046   -0.932331
     35          1           0        4.664872   -1.500815   -1.973829
     36          1           0       -1.611992    3.798805   -1.270592
     37          1           0        0.004218    2.415724   -2.963559
     38          1           0        4.767871   -0.649093    2.634163
     39          1           0        3.127919    0.028445    2.815577
     40          1           0        4.151869    0.538649    1.452471
     41          1           0        2.356977   -3.304509   -1.709431
     42          1           0        1.039637   -2.357640   -2.409888
     43          1           0        2.640133   -2.368810   -3.218213
     44          1           0       -3.256161   -2.883880   -0.531102
     45          6           0       -3.191504   -1.613665   -2.286815
     46          1           0       -2.824037    0.412110    1.789005
     47          6           0       -2.219617   -1.242235    3.048429
     48          1           0       -5.409168   -1.653449   -0.368791
     49          1           0       -4.560704   -0.088717   -0.403513
     50          1           0       -4.979186   -0.667450    2.015221
     51          1           0       -4.270917   -2.283217    1.752856
     52          1           0       -4.075891   -2.072695   -2.762988
     53          1           0       -3.171237   -0.546291   -2.566215
     54          1           0       -2.296879   -2.100531   -2.711671
     55          1           0       -2.891461   -0.992456    3.889458
     56          1           0       -1.225683   -0.819805    3.273421
     57          1           0       -2.111711   -2.337532    2.991273
 ---------------------------------------------------------------------

 SCF Done:  E(RPBE1PBE) =  -1663.30577405     A.U. after    2 cycles

 The electronic state is 1-A.
 Alpha  occ. eigenvalues --  -77.17799 -77.17668 -10.23827 -10.23805 -10.23804
 Alpha  occ. eigenvalues --  -10.23757 -10.23745 -10.23733 -10.23621 -10.23609
 Alpha  occ. eigenvalues --  -10.23594 -10.23502 -10.22987 -10.22843 -10.22426
 Alpha  occ. eigenvalues --  -10.22319 -10.22099 -10.21998 -10.21847 -10.21756
 Alpha  occ. eigenvalues --  -10.21388 -10.21270 -10.20993 -10.20661  -6.57456
 Alpha  occ. eigenvalues --   -6.57327  -4.71059  -4.71003  -4.70926  -4.70885
 Alpha  occ. eigenvalues --   -4.70577  -4.70441  -3.60103  -2.24678  -2.20404
 Alpha  occ. eigenvalues --   -2.20398  -0.91575  -0.89562  -0.84610  -0.84509
 Alpha  occ. eigenvalues --   -0.78278  -0.77893  -0.74331  -0.74133  -0.73310
 Alpha  occ. eigenvalues --   -0.73270  -0.72738  -0.72196  -0.66159  -0.65270
 Alpha  occ. eigenvalues --   -0.65206  -0.65104  -0.57942  -0.57327  -0.56537
 Alpha  occ. eigenvalues --   -0.56408  -0.55548  -0.55449  -0.55253  -0.54112
 Alpha  occ. eigenvalues --   -0.50361  -0.49650  -0.48306  -0.47450  -0.46179
 Alpha  occ. eigenvalues --   -0.45827  -0.43938  -0.43874  -0.42806  -0.42523
 Alpha  occ. eigenvalues --   -0.42280  -0.42036  -0.41676  -0.41283  -0.40802
 Alpha  occ. eigenvalues --   -0.40644  -0.40189  -0.39763  -0.39517  -0.39468
 Alpha  occ. eigenvalues --   -0.39293  -0.38971  -0.37549  -0.37026  -0.36778
 Alpha  occ. eigenvalues --   -0.36549  -0.34053  -0.33698  -0.33665  -0.33353
 Alpha  occ. eigenvalues --   -0.33303  -0.33037  -0.32448  -0.32100  -0.30505
 Alpha  occ. eigenvalues --   -0.30126  -0.28336  -0.27940  -0.26813  -0.26543
 Alpha  occ. eigenvalues --   -0.25032  -0.22384  -0.22378  -0.22167  -0.18705
 Alpha virt. eigenvalues --   -0.00416   0.00167   0.00245   0.01873   0.02277
 Alpha virt. eigenvalues --    0.02379   0.03255   0.04121   0.04836   0.04968
 Alpha virt. eigenvalues --    0.05470   0.05791   0.06269   0.06356   0.06987

 Mulliken charges:
               1
     1  Fe  -0.579985
     2  P    0.015908
     3  P    0.037585
     4  C    0.141175
     5  C   -0.063228
     6  C   -0.066069
     7  C   -0.060426
     8  C   -0.133162
     9  C    0.169723
    10  C   -0.127559
    11  C   -0.099819
    12  C   -0.049848
    13  C   -0.158035
    14  C   -0.042078
    15  C   -0.215832
    16  C   -0.121908
    17  C   -0.198126
    18  C   -0.074961
    19  C   -0.188019
    20  C   -0.106393
    21  C   -0.185610
    22  H    0.089523
    23  H    0.116831
    24  H    0.115214
    25  H    0.128044
    26  H    0.119208
    27  H    0.118360
    28  H    0.101659
    29  C   -0.404729
    30  H    0.113563
    31  C   -0.384085
    32  H    0.113808
    33  H    0.100517
    34  H    0.112759
    35  H    0.099128
    36  H    0.114633
    37  H    0.116639
    38  H    0.119383
    39  H    0.129743
    40  H    0.128968
    41  H    0.119674
    42  H    0.129894
    43  H    0.120562
    44  H    0.097379
    45  C   -0.395632
    46  H    0.083945
    47  C   -0.363776
    48  H    0.098782
    49  H    0.108108
    50  H    0.107918
    51  H    0.096818
    52  H    0.122507
    53  H    0.144269
    54  H    0.121499
    55  H    0.120822
    56  H    0.123023
    57  H    0.121706
 Sum of Mulliken charges =  -0.00000

 Dipole moment (field-independent basis, Debye):
    X=             -0.1981    Y=              1.3021    Z=             -0.2896  Tot=              1.3486
 Quadrupole moment (field-independent basis, Debye-Ang):
   XX=           -172.1278   YY=           -170.7029   ZZ=           -173.5141
   XY=             -0.8371   XZ=             -6.6842   YZ=             -0.1254

 Summary of Natural Population Analysis:

                                       Natural Population
                Natural  -----------------------------------------------
    Atom  No    Charge         Core      Valence    Rydberg      Total
 -----------------------------------------------------------------------
     Fe    1   -0.33888     17.99232     8.30978    0.03678    26.33888
      P    2    0.80554      9.99823     4.16858    0.02766    14.19446
      P    3    0.80999      9.99822     4.16322    0.02858    14.19001
      C    4   -0.31902      1.99851     4.28033    0.04019     6.31902
      C    5   -0.20115      1.99864     4.17680    0.02570     6.20115
      C    6   -0.20653      1.99877     4.18455    0.02321     6.20653
      C    7   -0.20628      1.99877     4.18436    0.02315     6.20628
      C    8   -0.21678      1.99865     4.19310    0.02504     6.21678
      C    9   -0.32341      1.99852     4.28390    0.04099     6.32341
      C   10   -0.21760      1.99866     4.19412    0.02483     6.21760
      C   11   -0.20745      1.99877     4.18558    0.02311     6.20745
      C   12   -0.20765      1.99877     4.18560    0.02329     6.20765
      C   13   -0.20269      1.99864     4.17832    0.02573     6.20269
      C   14   -0.47416      1.99946     4.45062    0.02407     6.47416
      C   15   -0.41821      1.99944     4.40408    0.01469     6.41821
      C   16   -0.48936      1.99948     4.46645    0.02343     6.48936
      C   17   -0.41504      1.99943     4.40172    0.01389     6.41504
      C   18   -0.47282      1.99946     4.44760    0.02576     6.47282
      C   19   -0.41291      1.99943     4.39877    0.01471     6.41291
      C   20   -0.48261      1.99947     4.46061    0.02252     6.48261
      C   21   -0.41044      1.99944     4.39676    0.01423     6.41044
      H   22    0.24440      0.00000     0.75265    0.00295     0.75560
      H   23    0.24492      0.00000     0.75376    0.00132     0.75508
      H   24    0.24413      0.00000     0.75453    0.00134     0.75587
      H   25    0.24159      0.00000     0.75622    0.00219     0.75841
      H   26    0.24042      0.00000     0.75770    0.00188     0.75958
      H   27    0.24751      0.00000     0.74988    0.00261     0.75249
      H   28    0.22727      0.00000     0.77153    0.00120     0.77273
      C   29   -0.62358      1.99946     4.60999    0.01413     6.62358
      H   30    0.22861      0.00000     0.76967    0.00172     0.77139
      C   31   -0.61842      1.99945     4.60719    0.01177     6.61842
      H   32    0.20814      0.00000     0.79043    0.00144     0.79186
      H   33    0.21625      0.00000     0.78179    0.00197     0.78375
      H   34    0.20796      0.00000     0.79066    0.00138     0.79204
      H   35    0.21212      0.00000     0.78603    0.00185     0.78788
      H   36    0.24428      0.00000     0.75437    0.00135     0.75572
      H   37    0.24507      0.00000     0.75361    0.00132     0.75493
      H   38    0.20744      0.00000     0.79085    0.00171     0.79256
      H   39    0.22031      0.00000     0.77861    0.00107     0.77969
      H   40    0.21177      0.00000     0.78654    0.00169     0.78823
      H   41    0.21075      0.00000     0.78769    0.00156     0.78925
      H   42    0.21739      0.00000     0.78134    0.00127     0.78261
      H   43    0.20796      0.00000     0.79046    0.00158     0.79204
      H   44    0.22061      0.00000     0.77798    0.00141     0.77939
      C   45   -0.61913      1.99945     4.60705    0.01263     6.61913
      H   46    0.21715      0.00000     0.78076    0.00209     0.78285
      C   47   -0.60807      1.99945     4.59698    0.01164     6.60807
      H   48    0.21089      0.00000     0.78719    0.00192     0.78911
      H   49    0.20475      0.00000     0.79360    0.00166     0.79525
      H   50    0.21630      0.00000     0.78216    0.00155     0.78370
      H   51    0.20146      0.00000     0.79672    0.00182     0.79854
      H   52    0.21193      0.00000     0.78654    0.00154     0.78807
      H   53    0.21872      0.00000     0.77964    0.00164     0.78128
      H   54    0.21496      0.00000     0.78379    0.00125     0.78504
      H   55    0.20908      0.00000     0.78952    0.00140     0.79092
      H   56    0.20989      0.00000     0.78908    0.00103     0.79011
      H   57    0.21266      0.00000     0.78588    0.00147     0.78734
 =======================================================================
   * Total *   -0.00000     81.96887   137.40723    0.62390   220.00000

 Normal termination of Gaussian 09 at Sun Dec  5 03:07:08 2021.
