 Gaussian 09, Revision E.01,

 ----------------------------------------------------------------------
 # PBE1PBE gen pseudo=read int=(grid=ultrafine) empiricaldispersion=GD3
 BJ nmr=giao
 ----------------------------------------------------------------------

 -----------------------
 RR_Me_Ferrolane_2 title
 -----------------------
 Symbolic Z-matrix:
 Charge =  0 Multiplicity = 1

 SCF Done:  E(RPBE1PBE) =  -2711.51113095     A.U. after   25 cycles

      1  Fe   Isotropic = -5863.9742   Anisotropy =  7806.3270

      2  P    Isotropic =   213.3942   Anisotropy =   126.9505

      3  P    Isotropic =   202.2905   Anisotropy =   103.3367

      4  C    Isotropic =   106.9618   Anisotropy =    82.5560

      5  C    Isotropic =   103.4801   Anisotropy =    88.9627

      6  C    Isotropic =   106.7659   Anisotropy =    90.4931

      7  C    Isotropic =   110.6436   Anisotropy =    87.5878

      8  C    Isotropic =   107.8383   Anisotropy =    79.3937

      9  C    Isotropic =   105.6991   Anisotropy =    84.5774

     10  C    Isotropic =   108.0034   Anisotropy =    80.4984

     11  C    Isotropic =   110.1473   Anisotropy =    87.6171

     12  C    Isotropic =   106.8315   Anisotropy =    90.8993

     13  C    Isotropic =   104.1384   Anisotropy =    85.9811

     14  C    Isotropic =   138.5221   Anisotropy =    32.3493

     15  C    Isotropic =   147.5913   Anisotropy =    29.7806

     16  C    Isotropic =   143.5958   Anisotropy =    28.8721

     17  C    Isotropic =   146.8460   Anisotropy =    26.6246

     18  C    Isotropic =   140.2512   Anisotropy =    35.8735

     19  C    Isotropic =   146.5126   Anisotropy =    39.6054

     20  C    Isotropic =   142.1752   Anisotropy =    30.2397

     21  C    Isotropic =   149.9400   Anisotropy =    34.6014

     22  H    Isotropic =    27.3480   Anisotropy =     3.8728

     23  H    Isotropic =    27.2044   Anisotropy =     8.0852

     24  H    Isotropic =    27.3669   Anisotropy =     9.3267

     25  H    Isotropic =    27.5735   Anisotropy =     5.1681

     26  H    Isotropic =    27.5711   Anisotropy =     4.8590

     27  H    Isotropic =    27.2028   Anisotropy =     4.7736

     28  Cl   Isotropic =   892.7911   Anisotropy =   403.2297

     29  Cl   Isotropic =   914.3017   Anisotropy =   409.4913

     30  Pd   Isotropic =  -153.3210   Anisotropy =   247.9963

     31  H    Isotropic =    26.8824   Anisotropy =     8.8902

     32  C    Isotropic =   169.8987   Anisotropy =    18.8603

     33  H    Isotropic =    28.8871   Anisotropy =     6.1827

     34  C    Isotropic =   164.2637   Anisotropy =    20.5224

     35  H    Isotropic =    29.5458   Anisotropy =    12.6695

     36  H    Isotropic =    30.2432   Anisotropy =     7.0112

     37  H    Isotropic =    29.3922   Anisotropy =    12.1094

     38  H    Isotropic =    29.3711   Anisotropy =     7.3308

     39  H    Isotropic =    27.3534   Anisotropy =     9.2316

     40  H    Isotropic =    27.2017   Anisotropy =     8.1537

     41  H    Isotropic =    30.1688   Anisotropy =     7.8086

     42  H    Isotropic =    31.3721   Anisotropy =     5.7384

     43  H    Isotropic =    30.3904   Anisotropy =    13.6531

     44  H    Isotropic =    29.8315   Anisotropy =     5.7189

     45  H    Isotropic =    28.4282   Anisotropy =     6.8961

     46  H    Isotropic =    30.0434   Anisotropy =    12.6385

     47  H    Isotropic =    27.3501   Anisotropy =     7.9076

     48  C    Isotropic =   166.7263   Anisotropy =    22.5267

     49  H    Isotropic =    28.5869   Anisotropy =     6.3966

     50  C    Isotropic =   162.0891   Anisotropy =    25.4611

     51  H    Isotropic =    28.4385   Anisotropy =     6.9091

     52  H    Isotropic =    29.8206   Anisotropy =    12.8398

     53  H    Isotropic =    29.4438   Anisotropy =     8.7885

     54  H    Isotropic =    29.6300   Anisotropy =    12.2469

     55  H    Isotropic =    31.0647   Anisotropy =     5.7452

     56  H    Isotropic =    30.6576   Anisotropy =    13.9569

     57  H    Isotropic =    30.9319   Anisotropy =     6.6717

     58  H    Isotropic =    28.6598   Anisotropy =     4.8593

     59  H    Isotropic =    30.2246   Anisotropy =    13.0332

     60  H    Isotropic =    29.6953   Anisotropy =     5.4153

 Normal termination of Gaussian 09 at Sun Dec  5 03:32:52 2021.
 Gaussian 09:  ES64L-G09RevE.01 30-Nov-2015

 ----------------------------------------------------------------------
 # PBE1PBE gen pseudo=read int=(grid=ultrafine) empiricaldispersion=GD3
 BJ pop=nbo guess=read geom=check
 ----------------------------------------------------------------------

 -----------------------
 RR_Me_Ferrolane_2 title
 -----------------------
 Structure from the checkpoint file:  "RR_Me_Ferrolane_2_SPE.chk"
 Charge =  0 Multiplicity = 1

                         Standard orientation:
 ---------------------------------------------------------------------
 Center     Atomic      Atomic             Coordinates (Angstroms)
 Number     Number       Type             X           Y           Z
 ---------------------------------------------------------------------
      1         26           0       -0.057703    2.604935   -0.041111
      2         15           0        1.806126   -0.214034    0.042108
      3         15           0       -1.769757   -0.289172   -0.055359
      4          6           0        1.479094    1.490007    0.601453
      5          6           0        0.591479    1.801040    1.701366
      6          6           0        0.512679    3.226317    1.834856
      7          6           0        1.358723    3.813743    0.836345
      8          6           0        1.963416    2.753231    0.081053
      9          6           0       -1.527833    1.405175   -0.675586
     10          6           0       -2.081034    2.643134   -0.163259
     11          6           0       -1.536828    3.729054   -0.928062
     12          6           0       -0.659007    3.180577   -1.921462
     13          6           0       -0.659917    1.753730   -1.778378
     14          6           0        3.270755   -0.686062    1.125282
     15          6           0        4.466715   -0.122024    0.334471
     16          6           0        2.805164   -0.029734   -1.548131
     17          6           0        4.235773   -0.467039   -1.144443
     18          6           0       -3.325012   -0.893146   -0.955509
     19          6           0       -4.305231   -1.185814    0.204697
     20          6           0       -2.589430   -0.054378    1.624213
     21          6           0       -4.100520   -0.127194    1.303050
     22          1           0        0.043719    1.064147    2.289466
     23          1           0       -0.119463    3.767467    2.539689
     24          1           0        1.481136    4.880498    0.644895
     25          1           0        2.630169    2.886716   -0.770508
     26          1           0       -2.757045    2.740281    0.686492
     27          1           0       -0.063423    1.045303   -2.353672
     28         17           0        1.796206   -3.342473   -0.220302
     29         17           0       -1.562228   -3.467873   -0.061562
     30         46           0        0.052524   -1.701839   -0.065397
     31          1           0        3.287846   -1.788324    1.070117
     32          6           0        3.176356   -0.238912    2.582451
     33          1           0        2.800641    1.049860   -1.783366
     34          6           0        2.248724   -0.811246   -2.742446
     35          1           0        5.413049   -0.549875    0.712344
     36          1           0        4.527087    0.975788    0.473949
     37          1           0        4.983574    0.003222   -1.807595
     38          1           0        4.311868   -1.561460   -1.276912
     39          1           0       -1.716842    4.789180   -0.745344
     40          1           0       -0.055871    3.749873   -2.629460
     41          1           0        2.289399   -0.668147    3.079396
     42          1           0        3.128266    0.859663    2.675039
     43          1           0        4.066704   -0.587696    3.134918
     44          1           0        1.247631   -0.458430   -3.042957
     45          1           0        2.165689   -1.882636   -2.497883
     46          1           0        2.923074   -0.693700   -3.609934
     47          1           0       -3.040810   -1.832090   -1.454682
     48          6           0       -3.871567    0.111340   -1.976747
     49          1           0       -2.307370    0.948946    1.988255
     50          6           0       -2.125615   -1.110865    2.637243
     51          1           0       -4.083737   -2.189709    0.605290
     52          1           0       -5.346904   -1.191283   -0.164394
     53          1           0       -4.456265    0.857441    0.944898
     54          1           0       -4.677002   -0.368135    2.214562
     55          1           0       -4.179393    1.062440   -1.509017
     56          1           0       -4.757245   -0.325436   -2.471502
     57          1           0       -3.131629    0.350085   -2.758642
     58          1           0       -2.325810   -2.133204    2.277894
     59          1           0       -2.644227   -0.958171    3.600745
     60          1           0       -1.037085   -1.047970    2.810807
 ---------------------------------------------------------------------

 SCF Done:  E(RPBE1PBE) =  -2711.51113095     A.U. after    1 cycles

 The electronic state is 1-A.
 Alpha  occ. eigenvalues -- -101.61815-101.61634 -77.25518 -77.25448 -10.27077
 Alpha  occ. eigenvalues --  -10.27074 -10.26794 -10.26745 -10.26558 -10.26550
 Alpha  occ. eigenvalues --  -10.26524 -10.26518 -10.26491 -10.26480 -10.25677
 Alpha  occ. eigenvalues --  -10.25605 -10.24448 -10.24296 -10.23878 -10.23538
 Alpha  occ. eigenvalues --  -10.23399 -10.22869 -10.22465 -10.22389 -10.22065
 Alpha  occ. eigenvalues --  -10.21916  -9.44333  -9.44151  -7.17513  -7.17334
 Alpha  occ. eigenvalues --   -7.17061  -7.17020  -7.16879  -7.16836  -6.64772
 Alpha  occ. eigenvalues --   -6.64699  -4.78384  -4.78316  -4.78296  -4.78216
 Alpha  occ. eigenvalues --   -4.78107  -4.78039  -3.63122  -3.51934  -2.27678
 Alpha  occ. eigenvalues --   -2.23455  -2.23395  -2.19781  -2.19440  -2.16183
 Alpha  occ. eigenvalues --   -0.94570  -0.92550  -0.86781  -0.86724  -0.79927
 Alpha  occ. eigenvalues --   -0.79773  -0.77436  -0.77164  -0.76185  -0.76135
 Alpha  occ. eigenvalues --   -0.74866  -0.74328  -0.73954  -0.73751  -0.68374
 Alpha  occ. eigenvalues --   -0.68312  -0.67605  -0.66555  -0.60312  -0.59817
 Alpha  occ. eigenvalues --   -0.59332  -0.58944  -0.58272  -0.57963  -0.57362
 Alpha  occ. eigenvalues --   -0.56839  -0.53150  -0.52494  -0.49906  -0.49579
 Alpha  occ. eigenvalues --   -0.48952  -0.48560  -0.46462  -0.45858  -0.45240
 Alpha  occ. eigenvalues --   -0.44771  -0.44393  -0.43967  -0.43639  -0.43312
 Alpha  occ. eigenvalues --   -0.42967  -0.42638  -0.42512  -0.42370  -0.42261
 Alpha  occ. eigenvalues --   -0.41916  -0.41472  -0.40420  -0.40112  -0.39632
 Alpha  occ. eigenvalues --   -0.39429  -0.38567  -0.37013  -0.36817  -0.36052
 Alpha  occ. eigenvalues --   -0.35814  -0.35295  -0.35107  -0.35009  -0.34853
 Alpha  occ. eigenvalues --   -0.34663  -0.34103  -0.33807  -0.33505  -0.32910
 Alpha  occ. eigenvalues --   -0.31490  -0.31336  -0.30722  -0.30086  -0.29658
 Alpha  occ. eigenvalues --   -0.29279  -0.28447  -0.28179  -0.27250  -0.25966
 Alpha  occ. eigenvalues --   -0.25226  -0.25176  -0.25146  -0.24739  -0.24114
 Alpha  occ. eigenvalues --   -0.24041
 Alpha virt. eigenvalues --   -0.07275  -0.02707  -0.02649  -0.01799  -0.01791
 Alpha virt. eigenvalues --    0.00116   0.00650   0.01209   0.01664   0.02061
 Alpha virt. eigenvalues --    0.02802   0.03103   0.03166   0.03951   0.04284

 Mulliken charges:
               1
     1  Fe  -0.581961
     2  P    0.142789
     3  P    0.133221
     4  C    0.127841
     5  C   -0.166665
     6  C   -0.016910
     7  C   -0.121604
     8  C   -0.078850
     9  C    0.068914
    10  C   -0.076099
    11  C   -0.082745
    12  C   -0.037144
    13  C   -0.059492
    14  C   -0.061983
    15  C   -0.218695
    16  C   -0.087015
    17  C   -0.191067
    18  C   -0.073971
    19  C   -0.231452
    20  C   -0.106203
    21  C   -0.214365
    22  H    0.128852
    23  H    0.126544
    24  H    0.125171
    25  H    0.135152
    26  H    0.141478
    27  H    0.099805
    28  Cl  -0.424232
    29  Cl  -0.424745
    30  Pd   0.191402
    31  H    0.149400
    32  C   -0.403553
    33  H    0.091780
    34  C   -0.387063
    35  H    0.120018
    36  H    0.109482
    37  H    0.113712
    38  H    0.133309
    39  H    0.125816
    40  H    0.126869
    41  H    0.139460
    42  H    0.137225
    43  H    0.134942
    44  H    0.125102
    45  H    0.172501
    46  H    0.125565
    47  H    0.156199
    48  C   -0.387403
    49  H    0.120351
    50  C   -0.399229
    51  H    0.156510
    52  H    0.108910
    53  H    0.115698
    54  H    0.115325
    55  H    0.124585
    56  H    0.137786
    57  H    0.134658
    58  H    0.169595
    59  H    0.128214
    60  H    0.138266
 Sum of Mulliken charges =  -0.00000

 Dipole moment (field-independent basis, Debye):
    X=             -0.2757    Y=             11.5708    Z=              0.5079  Tot=             11.5852
 Quadrupole moment (field-independent basis, Debye-Ang):
   XX=           -204.3491   YY=           -243.5483   ZZ=           -212.6679
   XY=              1.0360   XZ=             -5.9570   YZ=             -2.3351

 Summary of Natural Population Analysis:

                                       Natural Population
                Natural  -----------------------------------------------
    Atom  No    Charge         Core      Valence    Rydberg      Total
 -----------------------------------------------------------------------
     Fe    1   -0.33791     17.99209     8.31101    0.03480    26.33791
      P    2    1.17001      9.99597     3.78082    0.05320    13.82999
      P    3    1.16816      9.99600     3.78285    0.05300    13.83184
      C    4   -0.36345      1.99852     4.31953    0.04541     6.36345
      C    5   -0.19248      1.99865     4.16872    0.02511     6.19248
      C    6   -0.19880      1.99877     4.17679    0.02323     6.19880
      C    7   -0.20119      1.99877     4.17957    0.02284     6.20119
      C    8   -0.19982      1.99867     4.17569    0.02546     6.19982
      C    9   -0.35995      1.99851     4.31715    0.04430     6.35995
      C   10   -0.20040      1.99866     4.17606    0.02568     6.20040
      C   11   -0.19960      1.99877     4.17797    0.02287     6.19960
      C   12   -0.19732      1.99877     4.17543    0.02312     6.19732
      C   13   -0.19148      1.99865     4.16772    0.02512     6.19148
      C   14   -0.49934      1.99941     4.47287    0.02706     6.49934
      C   15   -0.41428      1.99941     4.40018    0.01468     6.41428
      C   16   -0.48312      1.99942     4.45966    0.02405     6.48312
      C   17   -0.41508      1.99943     4.40148    0.01417     6.41508
      C   18   -0.48804      1.99942     4.46202    0.02660     6.48804
      C   19   -0.42507      1.99942     4.41110    0.01454     6.42507
      C   20   -0.49558      1.99943     4.47218    0.02397     6.49558
      C   21   -0.41740      1.99943     4.40385    0.01413     6.41740
      H   22    0.25403      0.00000     0.74341    0.00256     0.74597
      H   23    0.25095      0.00000     0.74774    0.00131     0.74905
      H   24    0.25121      0.00000     0.74750    0.00128     0.74879
      H   25    0.24756      0.00000     0.75069    0.00175     0.75244
      H   26    0.24841      0.00000     0.74943    0.00216     0.75159
      H   27    0.25277      0.00000     0.74424    0.00299     0.74723
     Cl   28   -0.43899      9.99964     7.42953    0.00981    17.43899
     Cl   29   -0.43974      9.99965     7.43031    0.00978    17.43974
     Pd   30   -0.14016     35.98804    10.12435    0.02777    46.14016
      H   31    0.28068      0.00000     0.71778    0.00154     0.71932
      C   32   -0.62129      1.99944     4.60981    0.01205     6.62129
      H   33    0.22195      0.00000     0.77631    0.00174     0.77805
      C   34   -0.62356      1.99945     4.61255    0.01156     6.62356
      H   35    0.22878      0.00000     0.76971    0.00151     0.77122
      H   36    0.19962      0.00000     0.79873    0.00165     0.80038
      H   37    0.22019      0.00000     0.77832    0.00150     0.77981
      H   38    0.22948      0.00000     0.76901    0.00151     0.77052
      H   39    0.25111      0.00000     0.74761    0.00128     0.74889
      H   40    0.25111      0.00000     0.74759    0.00131     0.74889
      H   41    0.22144      0.00000     0.77742    0.00114     0.77856
      H   42    0.21199      0.00000     0.78634    0.00168     0.78801
      H   43    0.22339      0.00000     0.77526    0.00135     0.77661
      H   44    0.20613      0.00000     0.79286    0.00101     0.79387
      H   45    0.25442      0.00000     0.74433    0.00125     0.74558
      H   46    0.21633      0.00000     0.78231    0.00136     0.78367
      H   47    0.27791      0.00000     0.72072    0.00137     0.72209
      C   48   -0.62564      1.99945     4.61255    0.01365     6.62564
      H   49    0.23153      0.00000     0.76691    0.00155     0.76847
      C   50   -0.62986      1.99945     4.61862    0.01179     6.62986
      H   51    0.24166      0.00000     0.75695    0.00138     0.75834
      H   52    0.22188      0.00000     0.77645    0.00167     0.77812
      H   53    0.20473      0.00000     0.79384    0.00143     0.79527
      H   54    0.22661      0.00000     0.77182    0.00158     0.77339
      H   55    0.20750      0.00000     0.79080    0.00170     0.79250
      H   56    0.22329      0.00000     0.77534    0.00137     0.77671
      H   57    0.22140      0.00000     0.77748    0.00112     0.77860
      H   58    0.24931      0.00000     0.74937    0.00132     0.75069
      H   59    0.21449      0.00000     0.78405    0.00146     0.78551
      H   60    0.21952      0.00000     0.77939    0.00109     0.78048
 =======================================================================
   * Total *   -0.00000    137.95126   161.32008    0.72866   300.00000

 Normal termination of Gaussian 09 at Sun Dec  5 03:36:15 2021.
