 Gaussian 09, Revision E.01,

 ----------------------------------------------------------------------
 # PBE1PBE gen pseudo=read int=(grid=ultrafine) empiricaldispersion=GD3
 BJ nmr=giao
 ----------------------------------------------------------------------

 -----------------------
 RR_Me_Ferrolane_2 title
 -----------------------
 Symbolic Z-matrix:
 Charge =  0 Multiplicity = 1

 SCF Done:  E(RPBE1PBE) =  -1663.30580342     A.U. after   19 cycles

      1  Fe   Isotropic = -5892.1054   Anisotropy =  7921.9019

      2  P    Isotropic =   297.1043   Anisotropy =    60.3891

      3  P    Isotropic =   288.4278   Anisotropy =    79.4519

      4  C    Isotropic =   103.5982   Anisotropy =    89.5497

      5  C    Isotropic =   104.0463   Anisotropy =    87.1742

      6  C    Isotropic =   108.6317   Anisotropy =    88.0838

      7  C    Isotropic =   110.3196   Anisotropy =    87.9221

      8  C    Isotropic =   112.4947   Anisotropy =    83.5418

      9  C    Isotropic =   103.0212   Anisotropy =    93.0542

     10  C    Isotropic =   111.6638   Anisotropy =    81.7433

     11  C    Isotropic =   109.7034   Anisotropy =    88.1897

     12  C    Isotropic =   108.7248   Anisotropy =    88.3594

     13  C    Isotropic =   104.7905   Anisotropy =    84.0620

     14  C    Isotropic =   145.2873   Anisotropy =    22.1921

     15  C    Isotropic =   146.2304   Anisotropy =    31.5939

     16  C    Isotropic =   148.1356   Anisotropy =    27.2563

     17  C    Isotropic =   145.5771   Anisotropy =    33.1707

     18  C    Isotropic =   149.6781   Anisotropy =    22.8445

     19  C    Isotropic =   148.2060   Anisotropy =    38.1542

     20  C    Isotropic =   148.1325   Anisotropy =    21.9277

     21  C    Isotropic =   149.2569   Anisotropy =    34.3525

     22  H    Isotropic =    27.5093   Anisotropy =     5.7391

     23  H    Isotropic =    27.4028   Anisotropy =     7.4426

     24  H    Isotropic =    27.4451   Anisotropy =     8.5734

     25  H    Isotropic =    27.6986   Anisotropy =     3.9331

     26  H    Isotropic =    27.7413   Anisotropy =     3.5970

     27  H    Isotropic =    27.4609   Anisotropy =     6.5071

     28  H    Isotropic =    29.7492   Anisotropy =     8.6098

     29  C    Isotropic =   169.7842   Anisotropy =    19.3626

     30  H    Isotropic =    28.8240   Anisotropy =     5.4204

     31  C    Isotropic =   163.5515   Anisotropy =    27.2886

     32  H    Isotropic =    29.6931   Anisotropy =    12.1083

     33  H    Isotropic =    30.1254   Anisotropy =     5.2301

     34  H    Isotropic =    29.1997   Anisotropy =    10.7605

     35  H    Isotropic =    30.2591   Anisotropy =     9.0860

     36  H    Isotropic =    27.4345   Anisotropy =     8.4958

     37  H    Isotropic =    27.4101   Anisotropy =     7.5514

     38  H    Isotropic =    30.3664   Anisotropy =     9.1513

     39  H    Isotropic =    31.3078   Anisotropy =     6.1718

     40  H    Isotropic =    30.4921   Anisotropy =    12.6899

     41  H    Isotropic =    29.5944   Anisotropy =     7.2294

     42  H    Isotropic =    30.2100   Anisotropy =     7.9422

     43  H    Isotropic =    29.9454   Anisotropy =    11.2941

     44  H    Isotropic =    29.1977   Anisotropy =     9.0857

     45  C    Isotropic =   167.0040   Anisotropy =    19.5093

     46  H    Isotropic =    28.6050   Anisotropy =     7.0662

     47  C    Isotropic =   164.5235   Anisotropy =    33.6977

     48  H    Isotropic =    29.3464   Anisotropy =     9.9939

     49  H    Isotropic =    29.8077   Anisotropy =    11.8531

     50  H    Isotropic =    29.4015   Anisotropy =     7.3375

     51  H    Isotropic =    29.8308   Anisotropy =    11.2057

     52  H    Isotropic =    30.9449   Anisotropy =     4.2635

     53  H    Isotropic =    30.8153   Anisotropy =    13.2347

     54  H    Isotropic =    31.0219   Anisotropy =     6.6564

     55  H    Isotropic =    30.1453   Anisotropy =     7.7494

     56  H    Isotropic =    30.2657   Anisotropy =    12.0270

     57  H    Isotropic =    29.7871   Anisotropy =     7.8846

 Normal termination of Gaussian 09 at Sun Dec  5 02:58:28 2021.
 Gaussian 09:  ES64L-G09RevE.01 30-Nov-2015

 ----------------------------------------------------------------------
 # PBE1PBE gen pseudo=read int=(grid=ultrafine) empiricaldispersion=GD3
 BJ pop=nbo guess=read geom=check
 ----------------------------------------------------------------------

 -----------------------
 RR_Me_Ferrolane_2 title
 -----------------------
 Structure from the checkpoint file:  "RR_Me_Ferrolane_2_SPE_NoPd.chk"
 Charge =  0 Multiplicity = 1

                         Standard orientation:
 ---------------------------------------------------------------------
 Center     Atomic      Atomic             Coordinates (Angstroms)
 Number     Number       Type             X           Y           Z
 ---------------------------------------------------------------------
      1         26           0       -0.012718    1.710191   -0.223501
      2         15           0       -1.808110   -1.122556    0.200152
      3         15           0        1.768985   -1.097404    0.276628
      4          6           0       -1.525235    0.465646   -0.649062
      5          6           0       -0.650894    0.601441   -1.794269
      6          6           0       -0.607306    1.983365   -2.173512
      7          6           0       -1.462355    2.715524   -1.284287
      8          6           0       -2.037419    1.788531   -0.351127
      9          6           0        1.489178    0.672841    0.595936
     10          6           0        2.009676    1.815515   -0.128238
     11          6           0        1.443137    3.004862    0.441669
     12          6           0        0.583810    2.617034    1.523050
     13          6           0        0.618569    1.187406    1.629465
     14          6           0       -3.266244   -1.808916   -0.771429
     15          6           0       -4.471567   -1.143869   -0.079514
     16          6           0       -2.803398   -0.688148    1.743393
     17          6           0       -4.224985   -1.221640    1.434654
     18          6           0        3.342870   -1.500110    1.253656
     19          6           0        4.324108   -1.967032    0.152877
     20          6           0        2.574368   -1.138813   -1.425605
     21          6           0        4.088356   -1.120036   -1.110445
     22          1           0       -0.088378   -0.213525   -2.250690
     23          1           0        0.008029    2.408400   -2.967202
     24          1           0       -1.609617    3.796216   -1.279546
     25          1           0       -2.702966    2.052380    0.470435
     26          1           0        2.678902    1.779265   -0.988080
     27          1           0        0.042278    0.576020    2.324254
     28          1           0       -3.256356   -2.884984   -0.525876
     29          6           0       -3.189951   -1.619333   -2.284847
     30          1           0       -2.823857    0.415701    1.787875
     31          6           0       -2.222259   -1.237576    3.049984
     32          1           0       -5.409128   -1.652439   -0.368875
     33          1           0       -4.559207   -0.088592   -0.406624
     34          1           0       -4.980650   -0.660768    2.013027
     35          1           0       -4.273889   -2.277932    1.755516
     36          1           0        1.596508    4.021058    0.076320
     37          1           0       -0.029411    3.286519    2.127104
     38          1           0       -2.295340   -2.107774   -2.707913
     39          1           0       -3.168946   -0.552676   -2.566898
     40          1           0       -4.074325   -2.079063   -2.760367
     41          1           0       -1.228524   -0.815046    3.275666
     42          1           0       -2.114515   -2.332953    2.994098
     43          1           0       -2.894937   -0.986831    3.890064
     44          1           0        3.083981   -2.344484    1.910597
     45          6           0        3.870005   -0.321367    2.080298
     46          1           0        2.266281   -0.220627   -1.955475
     47          6           0        2.131247   -2.365428   -2.235902
     48          1           0        4.125007   -3.030030   -0.065601
     49          1           0        5.367431   -1.884425    0.507834
     50          1           0        4.421924   -0.080278   -0.931647
     51          1           0        4.665965   -1.502160   -1.971599
     52          1           0        4.152373    0.540972    1.452000
     53          1           0        4.768452   -0.645192    2.635196
     54          1           0        3.128399    0.032346    2.815670
     55          1           0        2.357931   -3.305032   -1.706613
     56          1           0        2.641211   -2.370345   -3.215965
     57          1           0        1.040664   -2.358647   -2.407829
 ---------------------------------------------------------------------

 SCF Done:  E(RPBE1PBE) =  -1663.30580342     A.U. after    2 cycles

 The electronic state is 1-A.
 Alpha  occ. eigenvalues --  -77.17801 -77.17669 -10.23828 -10.23806 -10.23803
 Alpha  occ. eigenvalues --  -10.23759 -10.23746 -10.23732 -10.23619 -10.23608
 Alpha  occ. eigenvalues --  -10.23596 -10.23504 -10.22987 -10.22843 -10.22426
 Alpha  occ. eigenvalues --  -10.22319 -10.22098 -10.21998 -10.21847 -10.21755
 Alpha  occ. eigenvalues --  -10.21389 -10.21272 -10.20993 -10.20662  -6.57457
 Alpha  occ. eigenvalues --   -6.57328  -4.71060  -4.71004  -4.70927  -4.70886
 Alpha  occ. eigenvalues --   -4.70579  -4.70441  -3.60104  -2.24679  -2.20405
 Alpha  occ. eigenvalues --   -2.20398  -0.91575  -0.89563  -0.84609  -0.84509
 Alpha  occ. eigenvalues --   -0.78279  -0.77894  -0.74332  -0.74133  -0.73311
 Alpha  occ. eigenvalues --   -0.73270  -0.72738  -0.72196  -0.66160  -0.65270
 Alpha  occ. eigenvalues --   -0.65206  -0.65104  -0.57942  -0.57328  -0.56538
 Alpha  occ. eigenvalues --   -0.56407  -0.55548  -0.55448  -0.55253  -0.54113
 Alpha  occ. eigenvalues --   -0.50360  -0.49650  -0.48307  -0.47449  -0.46181
 Alpha  occ. eigenvalues --   -0.45827  -0.43937  -0.43873  -0.42808  -0.42524
 Alpha  occ. eigenvalues --   -0.42278  -0.42039  -0.41677  -0.41283  -0.40803
 Alpha  occ. eigenvalues --   -0.40645  -0.40190  -0.39763  -0.39517  -0.39468
 Alpha  occ. eigenvalues --   -0.39292  -0.38971  -0.37550  -0.37028  -0.36780
 Alpha  occ. eigenvalues --   -0.36550  -0.34053  -0.33697  -0.33664  -0.33353
 Alpha  occ. eigenvalues --   -0.33303  -0.33037  -0.32447  -0.32100  -0.30505
 Alpha  occ. eigenvalues --   -0.30127  -0.28336  -0.27940  -0.26813  -0.26543
 Alpha  occ. eigenvalues --   -0.25033  -0.22385  -0.22379  -0.22167  -0.18710
 Alpha virt. eigenvalues --   -0.00417   0.00166   0.00244   0.01873   0.02276
 Alpha virt. eigenvalues --    0.02379   0.03255   0.04123   0.04835   0.04968
 Alpha virt. eigenvalues --    0.05470   0.05792   0.06271   0.06357   0.06988

 Mulliken charges:
               1
     1  Fe  -0.581639
     2  P    0.037585
     3  P    0.015906
     4  C    0.169997
     5  C   -0.157761
     6  C   -0.049594
     7  C   -0.099774
     8  C   -0.127242
     9  C    0.141236
    10  C   -0.132856
    11  C   -0.060607
    12  C   -0.065734
    13  C   -0.063112
    14  C   -0.074986
    15  C   -0.187963
    16  C   -0.106408
    17  C   -0.185726
    18  C   -0.042101
    19  C   -0.215792
    20  C   -0.121982
    21  C   -0.198166
    22  H    0.118185
    23  H    0.116658
    24  H    0.114641
    25  H    0.119249
    26  H    0.128019
    27  H    0.089389
    28  H    0.097376
    29  C   -0.395645
    30  H    0.084097
    31  C   -0.363844
    32  H    0.098767
    33  H    0.108164
    34  H    0.107913
    35  H    0.096810
    36  H    0.115220
    37  H    0.116868
    38  H    0.121512
    39  H    0.144270
    40  H    0.122504
    41  H    0.123014
    42  H    0.121744
    43  H    0.120832
    44  H    0.101673
    45  C   -0.404724
    46  H    0.113662
    47  C   -0.384010
    48  H    0.113796
    49  H    0.100513
    50  H    0.112716
    51  H    0.099127
    52  H    0.128954
    53  H    0.119375
    54  H    0.129769
    55  H    0.119668
    56  H    0.120577
    57  H    0.129877
 Sum of Mulliken charges =  -0.00000

 Dipole moment (field-independent basis, Debye):
    X=             -0.1978    Y=              1.3018    Z=             -0.2910  Tot=              1.3485
 Quadrupole moment (field-independent basis, Debye-Ang):
   XX=           -172.1180   YY=           -170.7018   ZZ=           -173.5276
   XY=             -0.8444   XZ=             -6.6844   YZ=             -0.1293

 Summary of Natural Population Analysis:

                                       Natural Population
                Natural  -----------------------------------------------
    Atom  No    Charge         Core      Valence    Rydberg      Total
 -----------------------------------------------------------------------
     Fe    1   -0.33876     17.99232     8.30965    0.03679    26.33876
      P    2    0.81007      9.99822     4.16314    0.02857    14.18993
      P    3    0.80552      9.99823     4.16860    0.02765    14.19448
      C    4   -0.32348      1.99852     4.28397    0.04100     6.32348
      C    5   -0.20268      1.99864     4.17831    0.02573     6.20268
      C    6   -0.20766      1.99877     4.18560    0.02329     6.20766
      C    7   -0.20746      1.99877     4.18559    0.02311     6.20746
      C    8   -0.21763      1.99866     4.19414    0.02483     6.21763
      C    9   -0.31911      1.99851     4.28041    0.04019     6.31911
      C   10   -0.21681      1.99865     4.19312    0.02504     6.21681
      C   11   -0.20630      1.99877     4.18438    0.02314     6.20630
      C   12   -0.20653      1.99877     4.18455    0.02321     6.20653
      C   13   -0.20112      1.99865     4.17678    0.02570     6.20112
      C   14   -0.47284      1.99946     4.44762    0.02575     6.47284
      C   15   -0.41293      1.99943     4.39879    0.01471     6.41293
      C   16   -0.48268      1.99947     4.46069    0.02252     6.48268
      C   17   -0.41044      1.99944     4.39677    0.01424     6.41044
      C   18   -0.47411      1.99946     4.45058    0.02407     6.47411
      C   19   -0.41822      1.99944     4.40409    0.01469     6.41822
      C   20   -0.48939      1.99948     4.46648    0.02343     6.48939
      C   21   -0.41501      1.99943     4.40169    0.01389     6.41501
      H   22    0.24753      0.00000     0.74986    0.00261     0.75247
      H   23    0.24508      0.00000     0.75360    0.00132     0.75492
      H   24    0.24428      0.00000     0.75437    0.00135     0.75572
      H   25    0.24045      0.00000     0.75767    0.00188     0.75955
      H   26    0.24160      0.00000     0.75621    0.00219     0.75840
      H   27    0.24442      0.00000     0.75262    0.00295     0.75558
      H   28    0.22062      0.00000     0.77797    0.00141     0.77938
      C   29   -0.61913      1.99945     4.60705    0.01263     6.61913
      H   30    0.21720      0.00000     0.78072    0.00209     0.78280
      C   31   -0.60806      1.99945     4.59696    0.01164     6.60806
      H   32    0.21089      0.00000     0.78719    0.00192     0.78911
      H   33    0.20476      0.00000     0.79358    0.00166     0.79524
      H   34    0.21629      0.00000     0.78216    0.00155     0.78371
      H   35    0.20146      0.00000     0.79672    0.00182     0.79854
      H   36    0.24413      0.00000     0.75453    0.00134     0.75587
      H   37    0.24492      0.00000     0.75377    0.00132     0.75508
      H   38    0.21496      0.00000     0.78379    0.00125     0.78504
      H   39    0.21872      0.00000     0.77964    0.00164     0.78128
      H   40    0.21193      0.00000     0.78653    0.00154     0.78807
      H   41    0.20986      0.00000     0.78911    0.00103     0.79014
      H   42    0.21265      0.00000     0.78588    0.00147     0.78735
      H   43    0.20909      0.00000     0.78951    0.00140     0.79091
      H   44    0.22727      0.00000     0.77153    0.00120     0.77273
      C   45   -0.62359      1.99946     4.61000    0.01413     6.62359
      H   46    0.22862      0.00000     0.76965    0.00172     0.77138
      C   47   -0.61842      1.99945     4.60719    0.01178     6.61842
      H   48    0.20814      0.00000     0.79043    0.00144     0.79186
      H   49    0.21624      0.00000     0.78179    0.00197     0.78376
      H   50    0.20795      0.00000     0.79067    0.00138     0.79205
      H   51    0.21211      0.00000     0.78604    0.00185     0.78789
      H   52    0.21175      0.00000     0.78656    0.00169     0.78825
      H   53    0.20743      0.00000     0.79085    0.00171     0.79257
      H   54    0.22032      0.00000     0.77860    0.00107     0.77968
      H   55    0.21076      0.00000     0.78768    0.00156     0.78924
      H   56    0.20797      0.00000     0.79045    0.00158     0.79203
      H   57    0.21735      0.00000     0.78138    0.00127     0.78265
 =======================================================================
   * Total *   -0.00000     81.96887   137.40722    0.62391   220.00000

 Normal termination of Gaussian 09 at Sun Dec  5 03:02:37 2021.
