 Gaussian 09, Revision E.01,

 ----------------------------------------------------------------------
 # PBE1PBE gen pseudo=read int=(grid=ultrafine) empiricaldispersion=GD3
 BJ nmr=giao
 ----------------------------------------------------------------------

 -----------------------
 RR_Me_Ferrolane_4 title
 -----------------------
 Symbolic Z-matrix:
 Charge =  0 Multiplicity = 1

 SCF Done:  E(RPBE1PBE) =  -2711.50831530     A.U. after   24 cycles

      1  Fe   Isotropic = -5910.0855   Anisotropy =  7814.8066

      2  P    Isotropic =   204.3822   Anisotropy =   103.5034

      3  P    Isotropic =   204.3815   Anisotropy =   103.4985

      4  C    Isotropic =   106.1120   Anisotropy =    83.6484

      5  C    Isotropic =   102.9194   Anisotropy =    88.1721

      6  C    Isotropic =   107.1295   Anisotropy =    90.6499

      7  C    Isotropic =   110.3273   Anisotropy =    87.3439

      8  C    Isotropic =   108.6521   Anisotropy =    79.9792

      9  C    Isotropic =   106.1102   Anisotropy =    83.6495

     10  C    Isotropic =   108.6524   Anisotropy =    79.9781

     11  C    Isotropic =   110.3261   Anisotropy =    87.3427

     12  C    Isotropic =   107.1301   Anisotropy =    90.6496

     13  C    Isotropic =   102.9179   Anisotropy =    88.1727

     14  C    Isotropic =   140.5879   Anisotropy =    35.5093

     15  C    Isotropic =   146.3424   Anisotropy =    39.8831

     16  C    Isotropic =   141.7848   Anisotropy =    30.6189

     17  C    Isotropic =   149.8928   Anisotropy =    34.6220

     18  C    Isotropic =   140.5882   Anisotropy =    35.5081

     19  C    Isotropic =   146.3418   Anisotropy =    39.8836

     20  C    Isotropic =   141.7841   Anisotropy =    30.6194

     21  C    Isotropic =   149.8928   Anisotropy =    34.6218

     22  H    Isotropic =    27.3624   Anisotropy =     4.3487

     23  H    Isotropic =    27.2190   Anisotropy =     8.0447

     24  H    Isotropic =    27.3762   Anisotropy =     9.1828

     25  H    Isotropic =    27.5847   Anisotropy =     4.8070

     26  H    Isotropic =    27.5847   Anisotropy =     4.8068

     27  H    Isotropic =    27.3624   Anisotropy =     4.3483

     28  Cl   Isotropic =   915.1595   Anisotropy =   406.3507

     29  Cl   Isotropic =   915.1699   Anisotropy =   406.3848

     30  Pd   Isotropic =  -157.6456   Anisotropy =   252.9797

     31  H    Isotropic =    27.3634   Anisotropy =     7.7610

     32  C    Isotropic =   166.7488   Anisotropy =    22.1481

     33  H    Isotropic =    28.5803   Anisotropy =     6.5052

     34  C    Isotropic =   162.2411   Anisotropy =    24.9442

     35  H    Isotropic =    28.4394   Anisotropy =     6.9318

     36  H    Isotropic =    29.8184   Anisotropy =    12.8135

     37  H    Isotropic =    29.4572   Anisotropy =     8.6974

     38  H    Isotropic =    29.6347   Anisotropy =    12.2552

     39  H    Isotropic =    27.3761   Anisotropy =     9.1828

     40  H    Isotropic =    27.2190   Anisotropy =     8.0446

     41  H    Isotropic =    30.9166   Anisotropy =     6.7407

     42  H    Isotropic =    31.0712   Anisotropy =     5.7244

     43  H    Isotropic =    30.6426   Anisotropy =    13.9287

     44  H    Isotropic =    30.2339   Anisotropy =    13.0684

     45  H    Isotropic =    28.6446   Anisotropy =     5.0896

     46  H    Isotropic =    29.6800   Anisotropy =     4.8967

     47  H    Isotropic =    27.3637   Anisotropy =     7.7596

     48  C    Isotropic =   166.7490   Anisotropy =    22.1481

     49  H    Isotropic =    28.5802   Anisotropy =     6.5052

     50  C    Isotropic =   162.2404   Anisotropy =    24.9416

     51  H    Isotropic =    28.4393   Anisotropy =     6.9316

     52  H    Isotropic =    29.8184   Anisotropy =    12.8135

     53  H    Isotropic =    29.4572   Anisotropy =     8.6975

     54  H    Isotropic =    29.6347   Anisotropy =    12.2551

     55  H    Isotropic =    30.6426   Anisotropy =    13.9288

     56  H    Isotropic =    31.0711   Anisotropy =     5.7244

     57  H    Isotropic =    30.9166   Anisotropy =     6.7408

     58  H    Isotropic =    28.6442   Anisotropy =     5.0907

     59  H    Isotropic =    30.2339   Anisotropy =    13.0682

     60  H    Isotropic =    29.6800   Anisotropy =     4.8967

 Normal termination of Gaussian 09 at Sun Dec  5 03:40:16 2021.
 Gaussian 09:  ES64L-G09RevE.01 30-Nov-2015

 ----------------------------------------------------------------------
 # PBE1PBE gen pseudo=read int=(grid=ultrafine) empiricaldispersion=GD3
 BJ pop=nbo guess=read geom=check
 ----------------------------------------------------------------------

 -----------------------
 RR_Me_Ferrolane_4 title
 -----------------------
 Structure from the checkpoint file:  "RR_Me_Ferrolane_4_SPE.chk"
 Charge =  0 Multiplicity = 1

                         Standard orientation:
 ---------------------------------------------------------------------
 Center     Atomic      Atomic             Coordinates (Angstroms)
 Number     Number       Type             X           Y           Z
 ---------------------------------------------------------------------
      1         26           0        0.000007   -2.591544    0.000017
      2         15           0       -1.787850    0.248742    0.076804
      3         15           0        1.787852    0.248749   -0.076840
      4          6           0       -1.488013   -1.439807    0.687609
      5          6           0       -0.576677   -1.764130    1.761685
      6          6           0       -0.525126   -3.190750    1.897176
      7          6           0       -1.415362   -3.763197    0.928338
      8          6           0       -2.017192   -2.692450    0.186146
      9          6           0        1.488019   -1.439815   -0.687602
     10          6           0        2.017215   -2.692446   -0.186136
     11          6           0        1.415376   -3.763207   -0.928301
     12          6           0        0.525128   -3.190777   -1.897138
     13          6           0        0.576671   -1.764156   -1.761665
     14          6           0       -3.323371    0.818271    1.032148
     15          6           0       -4.358831    1.067171   -0.089992
     16          6           0       -2.664046   -0.017133   -1.570151
     17          6           0       -4.162365    0.006456   -1.187827
     18          6           0        3.323412    0.818240   -1.032139
     19          6           0        4.358827    1.067177    0.090035
     20          6           0        2.663981   -0.017076    1.570159
     21          6           0        4.162317    0.006499    1.187897
     22          1           0        0.008378   -1.036854    2.325705
     23          1           0        0.116424   -3.743758    2.584074
     24          1           0       -1.566857   -4.827897    0.746398
     25          1           0       -2.715503   -2.807730   -0.642930
     26          1           0        2.715506   -2.807713    0.642959
     27          1           0       -0.008374   -1.036884   -2.325701
     28         17           0       -1.672186    3.418778    0.020736
     29         17           0        1.672211    3.418754   -0.020676
     30         46           0       -0.000001    1.705915   -0.000065
     31          1           0       -3.046984    1.771456    1.508237
     32          6           0       -3.798129   -0.188523    2.086494
     33          1           0       -2.362670   -1.012583   -1.940491
     34          6           0       -2.278075    1.045403   -2.608785
     35          1           0       -4.187869    2.074133   -0.507126
     36          1           0       -5.384513    1.040616    0.320697
     37          1           0       -4.469062   -0.986510   -0.807754
     38          1           0       -4.783465    0.219467   -2.076721
     39          1           0        1.566872   -4.827903   -0.746340
     40          1           0       -0.116444   -3.743800   -2.584004
     41          1           0       -3.020541   -0.396270    2.840296
     42          1           0       -4.096642   -1.153738    1.642175
     43          1           0       -4.675416    0.228354    2.612382
     44          1           0       -2.828320    0.863906   -3.549529
     45          1           0       -2.500500    2.063476   -2.251231
     46          1           0       -1.195779    1.019743   -2.825056
     47          1           0        3.047046    1.771409   -1.508274
     48          6           0        3.798211   -0.188592   -2.086430
     49          1           0        2.362590   -1.012516    1.940515
     50          6           0        2.277970    1.045493    2.608743
     51          1           0        4.187850    2.074153    0.507129
     52          1           0        5.384526    1.040608   -0.320613
     53          1           0        4.469029   -0.986480    0.807870
     54          1           0        4.783380    0.219540    2.076809
     55          1           0        4.675516    0.228268   -2.612301
     56          1           0        4.096710   -1.153789   -1.642063
     57          1           0        3.020651   -0.396371   -2.840252
     58          1           0        2.500411    2.063555    2.251166
     59          1           0        2.828176    0.864027    3.549517
     60          1           0        1.195665    1.019845    2.824968
 ---------------------------------------------------------------------

 SCF Done:  E(RPBE1PBE) =  -2711.50831530     A.U. after    1 cycles

 The electronic state is 1-A.
 Alpha  occ. eigenvalues -- -101.61650-101.61650 -77.25489 -77.25489 -10.27087
 Alpha  occ. eigenvalues --  -10.27087 -10.26765 -10.26764 -10.26611 -10.26611
 Alpha  occ. eigenvalues --  -10.26578 -10.26578 -10.26542 -10.26542 -10.25634
 Alpha  occ. eigenvalues --  -10.25634 -10.24445 -10.24445 -10.23850 -10.23850
 Alpha  occ. eigenvalues --  -10.22852 -10.22852 -10.22480 -10.22480 -10.21949
 Alpha  occ. eigenvalues --  -10.21948  -9.44169  -9.44168  -7.17354  -7.17354
 Alpha  occ. eigenvalues --   -7.16895  -7.16895  -7.16852  -7.16852  -6.64741
 Alpha  occ. eigenvalues --   -6.64741  -4.78355  -4.78355  -4.78265  -4.78264
 Alpha  occ. eigenvalues --   -4.78074  -4.78074  -3.63175  -3.51898  -2.27727
 Alpha  occ. eigenvalues --   -2.23506  -2.23445  -2.19737  -2.19406  -2.16148
 Alpha  occ. eigenvalues --   -0.94616  -0.92600  -0.86753  -0.86702  -0.79759
 Alpha  occ. eigenvalues --   -0.79731  -0.77475  -0.77214  -0.76227  -0.76187
 Alpha  occ. eigenvalues --   -0.74756  -0.74073  -0.73794  -0.73690  -0.68354
 Alpha  occ. eigenvalues --   -0.68305  -0.67572  -0.67557  -0.60326  -0.59406
 Alpha  occ. eigenvalues --   -0.59278  -0.58456  -0.58369  -0.57402  -0.57298
 Alpha  occ. eigenvalues --   -0.56989  -0.53229  -0.52987  -0.49888  -0.49869
 Alpha  occ. eigenvalues --   -0.49207  -0.48821  -0.46819  -0.45468  -0.45228
 Alpha  occ. eigenvalues --   -0.44487  -0.44426  -0.43787  -0.43540  -0.43294
 Alpha  occ. eigenvalues --   -0.42884  -0.42508  -0.42436  -0.42353  -0.42318
 Alpha  occ. eigenvalues --   -0.41634  -0.41338  -0.40449  -0.40237  -0.39707
 Alpha  occ. eigenvalues --   -0.39572  -0.39331  -0.36933  -0.36832  -0.35951
 Alpha  occ. eigenvalues --   -0.35926  -0.35255  -0.35165  -0.34891  -0.34795
 Alpha  occ. eigenvalues --   -0.34200  -0.33871  -0.33778  -0.33618  -0.32884
 Alpha  occ. eigenvalues --   -0.31464  -0.31317  -0.30664  -0.30127  -0.29657
 Alpha  occ. eigenvalues --   -0.29322  -0.28411  -0.28171  -0.27290  -0.25916
 Alpha  occ. eigenvalues --   -0.25233  -0.25186  -0.25111  -0.24744  -0.24069
 Alpha  occ. eigenvalues --   -0.23988
 Alpha virt. eigenvalues --   -0.07221  -0.02806  -0.02719  -0.01840  -0.01760
 Alpha virt. eigenvalues --    0.00020   0.00525   0.01196   0.01225   0.02067
 Alpha virt. eigenvalues --    0.03016   0.03017   0.03214   0.03913   0.04086

 Mulliken charges:
               1
     1  Fe  -0.622286
     2  P    0.146372
     3  P    0.146369
     4  C    0.094168
     5  C   -0.111465
     6  C   -0.044377
     7  C   -0.085265
     8  C   -0.076565
     9  C    0.094155
    10  C   -0.076555
    11  C   -0.085251
    12  C   -0.044380
    13  C   -0.111460
    14  C   -0.075481
    15  C   -0.232096
    16  C   -0.106924
    17  C   -0.214953
    18  C   -0.075481
    19  C   -0.232102
    20  C   -0.106922
    21  C   -0.214951
    22  H    0.136640
    23  H    0.126213
    24  H    0.126127
    25  H    0.142031
    26  H    0.142032
    27  H    0.136637
    28  Cl  -0.421377
    29  Cl  -0.421379
    30  Pd   0.180137
    31  H    0.155702
    32  C   -0.386647
    33  H    0.119869
    34  C   -0.404243
    35  H    0.156274
    36  H    0.108600
    37  H    0.115729
    38  H    0.115467
    39  H    0.126128
    40  H    0.126213
    41  H    0.133668
    42  H    0.124850
    43  H    0.137871
    44  H    0.127726
    45  H    0.170076
    46  H    0.143078
    47  H    0.155699
    48  C   -0.386643
    49  H    0.119870
    50  C   -0.404240
    51  H    0.156276
    52  H    0.108600
    53  H    0.115728
    54  H    0.115468
    55  H    0.137871
    56  H    0.124850
    57  H    0.133668
    58  H    0.170074
    59  H    0.127724
    60  H    0.143081
 Sum of Mulliken charges =  -0.00000

 Dipole moment (field-independent basis, Debye):
    X=             -0.0000    Y=            -11.6632    Z=             -0.0001  Tot=             11.6632
 Quadrupole moment (field-independent basis, Debye-Ang):
   XX=           -204.4003   YY=           -243.8980   ZZ=           -212.7689
   XY=              0.0002   XZ=              6.4886   YZ=             -0.0002

 Summary of Natural Population Analysis:

                                       Natural Population
                Natural  -----------------------------------------------
    Atom  No    Charge         Core      Valence    Rydberg      Total
 -----------------------------------------------------------------------
     Fe    1   -0.33740     17.99208     8.30990    0.03541    26.33740
      P    2    1.16657      9.99599     3.78420    0.05324    13.83343
      P    3    1.16657      9.99599     3.78420    0.05324    13.83343
      C    4   -0.36000      1.99851     4.31700    0.04449     6.36000
      C    5   -0.19324      1.99866     4.16930    0.02528     6.19324
      C    6   -0.19787      1.99878     4.17588    0.02321     6.19787
      C    7   -0.19986      1.99877     4.17815    0.02293     6.19986
      C    8   -0.20142      1.99866     4.17700    0.02576     6.20142
      C    9   -0.36000      1.99851     4.31700    0.04449     6.36000
      C   10   -0.20142      1.99866     4.17700    0.02576     6.20142
      C   11   -0.19986      1.99877     4.17815    0.02293     6.19986
      C   12   -0.19787      1.99878     4.17588    0.02321     6.19787
      C   13   -0.19324      1.99866     4.16930    0.02528     6.19324
      C   14   -0.48807      1.99942     4.46205    0.02661     6.48807
      C   15   -0.42484      1.99942     4.41085    0.01456     6.42484
      C   16   -0.49418      1.99943     4.47074    0.02400     6.49418
      C   17   -0.41780      1.99943     4.40422    0.01415     6.41780
      C   18   -0.48807      1.99942     4.46205    0.02661     6.48807
      C   19   -0.42484      1.99942     4.41085    0.01456     6.42484
      C   20   -0.49418      1.99943     4.47074    0.02400     6.49418
      C   21   -0.41780      1.99943     4.40422    0.01415     6.41780
      H   22    0.25463      0.00000     0.74290    0.00247     0.74537
      H   23    0.25103      0.00000     0.74765    0.00132     0.74897
      H   24    0.25124      0.00000     0.74746    0.00129     0.74876
      H   25    0.24875      0.00000     0.74910    0.00215     0.75125
      H   26    0.24875      0.00000     0.74910    0.00215     0.75125
      H   27    0.25463      0.00000     0.74290    0.00247     0.74537
     Cl   28   -0.43645      9.99964     7.42701    0.00980    17.43645
     Cl   29   -0.43645      9.99964     7.42701    0.00980    17.43645
     Pd   30   -0.14585     35.98817    10.13001    0.02767    46.14585
      H   31    0.27731      0.00000     0.72132    0.00136     0.72269
      C   32   -0.62561      1.99945     4.61251    0.01366     6.62561
      H   33    0.23115      0.00000     0.76730    0.00155     0.76885
      C   34   -0.63040      1.99945     4.61914    0.01181     6.63040
      H   35    0.24166      0.00000     0.75695    0.00139     0.75834
      H   36    0.22161      0.00000     0.77672    0.00167     0.77839
      H   37    0.20458      0.00000     0.79399    0.00144     0.79542
      H   38    0.22674      0.00000     0.77168    0.00158     0.77326
      H   39    0.25124      0.00000     0.74746    0.00129     0.74876
      H   40    0.25103      0.00000     0.74765    0.00132     0.74897
      H   41    0.22071      0.00000     0.77817    0.00112     0.77929
      H   42    0.20774      0.00000     0.79055    0.00170     0.79226
      H   43    0.22324      0.00000     0.77540    0.00136     0.77676
      H   44    0.21412      0.00000     0.78442    0.00146     0.78588
      H   45    0.24965      0.00000     0.74902    0.00133     0.75035
      H   46    0.22061      0.00000     0.77835    0.00104     0.77939
      H   47    0.27731      0.00000     0.72133    0.00136     0.72269
      C   48   -0.62561      1.99945     4.61251    0.01366     6.62561
      H   49    0.23115      0.00000     0.76730    0.00155     0.76885
      C   50   -0.63040      1.99945     4.61915    0.01181     6.63040
      H   51    0.24166      0.00000     0.75695    0.00139     0.75834
      H   52    0.22161      0.00000     0.77672    0.00167     0.77839
      H   53    0.20458      0.00000     0.79399    0.00144     0.79542
      H   54    0.22674      0.00000     0.77168    0.00158     0.77326
      H   55    0.22324      0.00000     0.77540    0.00136     0.77676
      H   56    0.20774      0.00000     0.79055    0.00170     0.79226
      H   57    0.22071      0.00000     0.77817    0.00112     0.77929
      H   58    0.24966      0.00000     0.74902    0.00133     0.75034
      H   59    0.21412      0.00000     0.78443    0.00146     0.78588
      H   60    0.22061      0.00000     0.77835    0.00104     0.77939
 =======================================================================
   * Total *    0.00000    137.95144   161.31799    0.73057   300.00000

 Normal termination of Gaussian 09 at Sun Dec  5 03:43:38 2021.
