 Gaussian 09, Revision E.01,

 ----------------------------------------------------------------------
 # PBE1PBE gen pseudo=read int=(grid=ultrafine) empiricaldispersion=GD3
 BJ nmr=giao
 ----------------------------------------------------------------------

 -----------------------
 RR_Me_Ferrolane_4 title
 -----------------------
 Symbolic Z-matrix:
 Charge =  0 Multiplicity = 1

 SCF Done:  E(RPBE1PBE) =  -1663.30425226     A.U. after   18 cycles

      1  Fe   Isotropic = -5943.3375   Anisotropy =  7929.2714

      2  P    Isotropic =   288.1839   Anisotropy =    77.7408

      3  P    Isotropic =   288.1847   Anisotropy =    77.7413

      4  C    Isotropic =   103.1797   Anisotropy =    92.2620

      5  C    Isotropic =   103.1835   Anisotropy =    86.6189

      6  C    Isotropic =   108.8367   Anisotropy =    88.4649

      7  C    Isotropic =   110.0950   Anisotropy =    87.9739

      8  C    Isotropic =   111.8317   Anisotropy =    81.4453

      9  C    Isotropic =   103.1793   Anisotropy =    92.2616

     10  C    Isotropic =   111.8323   Anisotropy =    81.4440

     11  C    Isotropic =   110.0940   Anisotropy =    87.9731

     12  C    Isotropic =   108.8373   Anisotropy =    88.4644

     13  C    Isotropic =   103.1822   Anisotropy =    86.6193

     14  C    Isotropic =   149.6073   Anisotropy =    23.1697

     15  C    Isotropic =   148.1591   Anisotropy =    38.1563

     16  C    Isotropic =   148.0469   Anisotropy =    21.8895

     17  C    Isotropic =   149.3446   Anisotropy =    34.2451

     18  C    Isotropic =   149.6074   Anisotropy =    23.1694

     19  C    Isotropic =   148.1591   Anisotropy =    38.1564

     20  C    Isotropic =   148.0465   Anisotropy =    21.8899

     21  C    Isotropic =   149.3445   Anisotropy =    34.2450

     22  H    Isotropic =    27.5335   Anisotropy =     6.1199

     23  H    Isotropic =    27.4043   Anisotropy =     7.3858

     24  H    Isotropic =    27.4778   Anisotropy =     8.4409

     25  H    Isotropic =    27.7315   Anisotropy =     3.6745

     26  H    Isotropic =    27.7314   Anisotropy =     3.6741

     27  H    Isotropic =    27.5335   Anisotropy =     6.1196

     28  H    Isotropic =    29.1922   Anisotropy =     9.0056

     29  C    Isotropic =   167.0266   Anisotropy =    19.2289

     30  H    Isotropic =    28.6044   Anisotropy =     7.1961

     31  C    Isotropic =   164.7350   Anisotropy =    33.8686

     32  H    Isotropic =    29.3453   Anisotropy =    10.0129

     33  H    Isotropic =    29.8033   Anisotropy =    11.8203

     34  H    Isotropic =    29.4041   Anisotropy =     7.2091

     35  H    Isotropic =    29.8255   Anisotropy =    11.2295

     36  H    Isotropic =    27.4777   Anisotropy =     8.4409

     37  H    Isotropic =    27.4043   Anisotropy =     7.3857

     38  H    Isotropic =    30.9891   Anisotropy =     6.7035

     39  H    Isotropic =    30.9696   Anisotropy =     4.2314

     40  H    Isotropic =    30.8011   Anisotropy =    13.1899

     41  H    Isotropic =    30.2625   Anisotropy =    12.1094

     42  H    Isotropic =    30.1610   Anisotropy =     7.9085

     43  H    Isotropic =    29.8027   Anisotropy =     7.4226

     44  H    Isotropic =    29.1922   Anisotropy =     9.0057

     45  C    Isotropic =   167.0267   Anisotropy =    19.2291

     46  H    Isotropic =    28.6044   Anisotropy =     7.1962

     47  C    Isotropic =   164.7350   Anisotropy =    33.8687

     48  H    Isotropic =    29.3453   Anisotropy =    10.0129

     49  H    Isotropic =    29.8033   Anisotropy =    11.8203

     50  H    Isotropic =    29.4040   Anisotropy =     7.2092

     51  H    Isotropic =    29.8255   Anisotropy =    11.2294

     52  H    Isotropic =    30.8011   Anisotropy =    13.1900

     53  H    Isotropic =    30.9696   Anisotropy =     4.2314

     54  H    Isotropic =    30.9891   Anisotropy =     6.7035

     55  H    Isotropic =    30.1610   Anisotropy =     7.9084

     56  H    Isotropic =    30.2625   Anisotropy =    12.1094

     57  H    Isotropic =    29.8027   Anisotropy =     7.4226

 Normal termination of Gaussian 09 at Sun Dec  5 03:10:47 2021.
 Gaussian 09:  ES64L-G09RevE.01 30-Nov-2015

 ----------------------------------------------------------------------
 # PBE1PBE gen pseudo=read int=(grid=ultrafine) empiricaldispersion=GD3
 BJ pop=nbo guess=read geom=check
 ----------------------------------------------------------------------

 -----------------------
 RR_Me_Ferrolane_4 title
 -----------------------
 Structure from the checkpoint file:  "RR_Me_Ferrolane_4_SPE_NoPd.chk"
 Charge =  0 Multiplicity = 1

                         Standard orientation:
 ---------------------------------------------------------------------
 Center     Atomic      Atomic             Coordinates (Angstroms)
 Number     Number       Type             X           Y           Z
 ---------------------------------------------------------------------
      1         26           0        0.000010    1.706498   -0.000040
      2         15           0       -1.787760   -1.133788   -0.078835
      3         15           0        1.787763   -1.133796    0.078932
      4          6           0       -1.487217    0.554750   -0.689325
      5          6           0       -0.574643    0.879052   -1.762356
      6          6           0       -0.522934    2.305669   -1.897814
      7          6           0       -1.414286    2.878136   -0.930014
      8          6           0       -2.016973    1.807403   -0.188496
      9          6           0        1.487227    0.554780    0.689316
     10          6           0        2.017003    1.807402    0.188437
     11          6           0        1.414310    2.878177    0.929888
     12          6           0        0.522944    2.305766    1.897708
     13          6           0        0.574642    0.879142    1.762322
     14          6           0       -3.322179   -1.703332   -1.035939
     15          6           0       -4.358933   -1.952210    0.085012
     16          6           0       -2.665854   -0.867881    1.567103
     17          6           0       -4.163732   -0.891475    1.183053
     18          6           0        3.322219   -1.703271    1.036011
     19          6           0        4.358928   -1.952229   -0.084964
     20          6           0        2.665790   -0.868002   -1.567061
     21          6           0        4.163685   -0.891572   -1.183072
     22          1           0        0.011062    0.151765   -2.325687
     23          1           0        0.119409    2.858664   -2.583982
     24          1           0       -1.565989    3.942839   -0.748268
     25          1           0       -2.716238    1.922699    0.639772
     26          1           0        2.716250    1.922652   -0.639854
     27          1           0       -0.011053    0.151881    2.325696
     28          1           0       -3.045244   -2.656526   -1.511691
     29          6           0       -3.795720   -0.696557   -2.090850
     30          1           0       -2.364904    0.127576    1.937772
     31          6           0       -2.281082   -1.930398    2.606202
     32          1           0       -4.188453   -2.959165    0.502361
     33          1           0       -5.384141   -1.925661   -0.326860
     34          1           0       -4.469989    0.101484    0.802608
     35          1           0       -4.785855   -1.104469    2.071234
     36          1           0        1.566016    3.942869    0.748082
     37          1           0       -0.119419    2.858802    2.583824
     38          1           0       -3.017263   -0.488825   -2.843759
     39          1           0       -4.094744    0.268666   -1.646893
     40          1           0       -4.672401   -1.113443   -2.617741
     41          1           0       -2.832411   -1.748882    3.546307
     42          1           0       -2.503096   -2.948477    2.248410
     43          1           0       -1.199036   -1.904735    2.823720
     44          1           0        3.045304   -2.656431    1.511844
     45          6           0        3.795803   -0.696419    2.090830
     46          1           0        2.364828    0.127432   -1.937783
     47          6           0        2.280976   -1.930590   -2.606070
     48          1           0        4.188430   -2.959213   -0.502236
     49          1           0        5.384152   -1.925654    0.326866
     50          1           0        4.469959    0.101414   -0.802710
     51          1           0        4.785771   -1.104630   -2.071263
     52          1           0        4.672501   -1.113271    2.617720
     53          1           0        4.094816    0.268769    1.646789
     54          1           0        3.017375   -0.488626    2.843751
     55          1           0        2.503003   -2.948645   -2.248217
     56          1           0        2.832266   -1.749142   -3.546212
     57          1           0        1.198921   -1.904944   -2.823543
 ---------------------------------------------------------------------

 SCF Done:  E(RPBE1PBE) =  -1663.30425226     A.U. after    2 cycles

 The electronic state is 1-A.
 Alpha  occ. eigenvalues --  -77.17761 -77.17761 -10.23883 -10.23883 -10.23809
 Alpha  occ. eigenvalues --  -10.23809 -10.23797 -10.23796 -10.23691 -10.23691
 Alpha  occ. eigenvalues --  -10.23570 -10.23569 -10.22885 -10.22885 -10.22374
 Alpha  occ. eigenvalues --  -10.22374 -10.22033 -10.22033 -10.21884 -10.21884
 Alpha  occ. eigenvalues --  -10.21295 -10.21295 -10.20726 -10.20726  -6.57416
 Alpha  occ. eigenvalues --   -6.57416  -4.71016  -4.71016  -4.70974  -4.70973
 Alpha  occ. eigenvalues --   -4.70532  -4.70532  -3.60183  -2.24756  -2.20479
 Alpha  occ. eigenvalues --   -2.20478  -0.91635  -0.89626  -0.84562  -0.84540
 Alpha  occ. eigenvalues --   -0.77951  -0.77933  -0.74363  -0.74176  -0.73358
 Alpha  occ. eigenvalues --   -0.73337  -0.72275  -0.72224  -0.66200  -0.66194
 Alpha  occ. eigenvalues --   -0.65182  -0.65150  -0.57448  -0.56707  -0.56554
 Alpha  occ. eigenvalues --   -0.56063  -0.55655  -0.55350  -0.55279  -0.54278
 Alpha  occ. eigenvalues --   -0.50456  -0.50326  -0.48352  -0.48342  -0.45971
 Alpha  occ. eigenvalues --   -0.45852  -0.44230  -0.43334  -0.42685  -0.42315
 Alpha  occ. eigenvalues --   -0.42283  -0.41919  -0.41523  -0.40959  -0.40744
 Alpha  occ. eigenvalues --   -0.40321  -0.39781  -0.39665  -0.39607  -0.39503
 Alpha  occ. eigenvalues --   -0.39407  -0.39013  -0.38975  -0.37145  -0.36830
 Alpha  occ. eigenvalues --   -0.36639  -0.33778  -0.33675  -0.33399  -0.33372
 Alpha  occ. eigenvalues --   -0.33083  -0.33078  -0.32160  -0.32127  -0.30597
 Alpha  occ. eigenvalues --   -0.30314  -0.28369  -0.28015  -0.26807  -0.26530
 Alpha  occ. eigenvalues --   -0.25098  -0.22450  -0.22436  -0.22247  -0.18750
 Alpha virt. eigenvalues --   -0.00478   0.00125   0.00127   0.01867   0.02322
 Alpha virt. eigenvalues --    0.02324   0.03185   0.03778   0.04891   0.04990
 Alpha virt. eigenvalues --    0.05488   0.05832   0.06076   0.06297   0.07084

 Mulliken charges:
               1
     1  Fe  -0.626005
     2  P    0.018766
     3  P    0.018766
     4  C    0.157635
     5  C   -0.104119
     6  C   -0.072244
     7  C   -0.061225
     8  C   -0.135321
     9  C    0.157622
    10  C   -0.135308
    11  C   -0.061211
    12  C   -0.072246
    13  C   -0.104117
    14  C   -0.043590
    15  C   -0.214605
    16  C   -0.122087
    17  C   -0.198555
    18  C   -0.043588
    19  C   -0.214605
    20  C   -0.122089
    21  C   -0.198556
    22  H    0.126114
    23  H    0.116371
    24  H    0.115571
    25  H    0.128614
    26  H    0.128614
    27  H    0.126113
    28  H    0.101737
    29  C   -0.404147
    30  H    0.113723
    31  C   -0.386499
    32  H    0.113432
    33  H    0.100594
    34  H    0.113073
    35  H    0.099445
    36  H    0.115571
    37  H    0.116371
    38  H    0.128795
    39  H    0.129366
    40  H    0.119922
    41  H    0.121013
    42  H    0.119750
    43  H    0.131467
    44  H    0.101737
    45  C   -0.404147
    46  H    0.113724
    47  C   -0.386499
    48  H    0.113432
    49  H    0.100594
    50  H    0.113072
    51  H    0.099445
    52  H    0.119922
    53  H    0.129366
    54  H    0.128796
    55  H    0.119750
    56  H    0.121013
    57  H    0.131468
 Sum of Mulliken charges =  -0.00000

 Dipole moment (field-independent basis, Debye):
    X=             -0.0000    Y=              1.4092    Z=             -0.0001  Tot=              1.4092
 Quadrupole moment (field-independent basis, Debye-Ang):
   XX=           -172.2251   YY=           -170.9795   ZZ=           -173.7767
   XY=             -0.0002   XZ=             -6.7174   YZ=              0.0000

 Summary of Natural Population Analysis:

                                       Natural Population
                Natural  -----------------------------------------------
    Atom  No    Charge         Core      Valence    Rydberg      Total
 -----------------------------------------------------------------------
     Fe    1   -0.33822     17.99230     8.30809    0.03783    26.33822
      P    2    0.80556      9.99823     4.16825    0.02796    14.19444
      P    3    0.80556      9.99823     4.16825    0.02796    14.19444
      C    4   -0.31969      1.99851     4.28070    0.04048     6.31969
      C    5   -0.20282      1.99865     4.17827    0.02590     6.20282
      C    6   -0.20683      1.99877     4.18475    0.02330     6.20683
      C    7   -0.20650      1.99877     4.18453    0.02320     6.20650
      C    8   -0.21772      1.99865     4.19395    0.02511     6.21772
      C    9   -0.31969      1.99851     4.28070    0.04048     6.31969
      C   10   -0.21772      1.99865     4.19395    0.02511     6.21772
      C   11   -0.20650      1.99877     4.18453    0.02320     6.20650
      C   12   -0.20683      1.99877     4.18475    0.02330     6.20683
      C   13   -0.20282      1.99865     4.17827    0.02590     6.20282
      C   14   -0.47450      1.99946     4.45097    0.02406     6.47450
      C   15   -0.41813      1.99944     4.40399    0.01470     6.41813
      C   16   -0.48867      1.99948     4.46569    0.02350     6.48867
      C   17   -0.41532      1.99943     4.40201    0.01388     6.41532
      C   18   -0.47450      1.99946     4.45097    0.02406     6.47450
      C   19   -0.41813      1.99944     4.40399    0.01470     6.41813
      C   20   -0.48867      1.99948     4.46569    0.02350     6.48867
      C   21   -0.41532      1.99943     4.40201    0.01388     6.41532
      H   22    0.24749      0.00000     0.75006    0.00246     0.75251
      H   23    0.24509      0.00000     0.75359    0.00133     0.75491
      H   24    0.24436      0.00000     0.75428    0.00136     0.75564
      H   25    0.24191      0.00000     0.75592    0.00218     0.75809
      H   26    0.24191      0.00000     0.75591    0.00218     0.75809
      H   27    0.24749      0.00000     0.75005    0.00246     0.75251
      H   28    0.22719      0.00000     0.77161    0.00120     0.77281
      C   29   -0.62349      1.99946     4.60991    0.01412     6.62349
      H   30    0.22865      0.00000     0.76964    0.00170     0.77135
      C   31   -0.61846      1.99945     4.60725    0.01176     6.61846
      H   32    0.20813      0.00000     0.79043    0.00144     0.79187
      H   33    0.21626      0.00000     0.78178    0.00197     0.78374
      H   34    0.20806      0.00000     0.79056    0.00138     0.79194
      H   35    0.21224      0.00000     0.78591    0.00185     0.78776
      H   36    0.24436      0.00000     0.75428    0.00136     0.75564
      H   37    0.24509      0.00000     0.75359    0.00133     0.75491
      H   38    0.21994      0.00000     0.77898    0.00107     0.78006
      H   39    0.21203      0.00000     0.78627    0.00170     0.78797
      H   40    0.20772      0.00000     0.79058    0.00170     0.79228
      H   41    0.20815      0.00000     0.79027    0.00158     0.79185
      H   42    0.21056      0.00000     0.78789    0.00156     0.78944
      H   43    0.21791      0.00000     0.78091    0.00117     0.78209
      H   44    0.22719      0.00000     0.77161    0.00120     0.77281
      C   45   -0.62349      1.99946     4.60991    0.01412     6.62349
      H   46    0.22865      0.00000     0.76964    0.00170     0.77135
      C   47   -0.61846      1.99945     4.60725    0.01176     6.61846
      H   48    0.20813      0.00000     0.79043    0.00144     0.79187
      H   49    0.21626      0.00000     0.78178    0.00197     0.78374
      H   50    0.20806      0.00000     0.79056    0.00138     0.79194
      H   51    0.21224      0.00000     0.78591    0.00185     0.78776
      H   52    0.20772      0.00000     0.79058    0.00170     0.79228
      H   53    0.21203      0.00000     0.78627    0.00170     0.78797
      H   54    0.21994      0.00000     0.77898    0.00107     0.78006
      H   55    0.21056      0.00000     0.78789    0.00156     0.78944
      H   56    0.20815      0.00000     0.79027    0.00158     0.79185
      H   57    0.21791      0.00000     0.78091    0.00117     0.78209
 =======================================================================
   * Total *    0.00000     81.96892   137.40601    0.62507   220.00000

 Normal termination of Gaussian 09 at Sun Dec  5 03:15:36 2021.
