 Gaussian 09, Revision E.01,

 ----------------------------------------------------------------------
 # PBE1PBE/def2TZVP int=(grid=ultrafine) empiricaldispersion=GD3BJ nmr=
 giao
 ----------------------------------------------------------------------

 ------------------
 RR_NorPhos_3 title
 ------------------
 Symbolic Z-matrix:
 Charge =  0 Multiplicity = 1

 SCF Done:  E(RPBE1PBE) =  -1879.63037609     A.U. after   14 cycles

      1  P    Isotropic =   296.9298   Anisotropy =    56.0228

      2  C    Isotropic =    39.8685   Anisotropy =   197.3808

      3  C    Isotropic =    45.5634   Anisotropy =   188.5882

      4  C    Isotropic =    51.3686   Anisotropy =   186.2817

      5  C    Isotropic =    53.7386   Anisotropy =   184.6172

      6  C    Isotropic =    52.7690   Anisotropy =   184.9398

      7  C    Isotropic =    45.7969   Anisotropy =   186.1738

      8  H    Isotropic =    23.1475   Anisotropy =    10.8768

      9  H    Isotropic =    23.8847   Anisotropy =     7.0419

     10  H    Isotropic =    24.0124   Anisotropy =     4.0442

     11  H    Isotropic =    23.9454   Anisotropy =     5.3844

     12  H    Isotropic =    23.6642   Anisotropy =    10.8448

     13  C    Isotropic =    37.6091   Anisotropy =   209.4035

     14  C    Isotropic =    40.1793   Anisotropy =   192.3216

     15  C    Isotropic =    51.6030   Anisotropy =   184.9161

     16  C    Isotropic =    51.5653   Anisotropy =   187.4707

     17  C    Isotropic =    52.1510   Anisotropy =   184.3626

     18  C    Isotropic =    45.8460   Anisotropy =   176.4909

     19  H    Isotropic =    23.0777   Anisotropy =     9.1867

     20  H    Isotropic =    23.7312   Anisotropy =     5.7020

     21  H    Isotropic =    23.8718   Anisotropy =     4.2345

     22  H    Isotropic =    23.9772   Anisotropy =     6.6115

     23  H    Isotropic =    23.7594   Anisotropy =    12.0411

     24  C    Isotropic =   133.4155   Anisotropy =    21.7705

     25  C    Isotropic =   137.5751   Anisotropy =    19.0163

     26  C    Isotropic =    41.1269   Anisotropy =   167.8856

     27  C    Isotropic =    37.7981   Anisotropy =   176.8430

     28  H    Isotropic =    24.3979   Anisotropy =     1.6072

     29  C    Isotropic =   140.2533   Anisotropy =    13.3121

     30  H    Isotropic =    28.4724   Anisotropy =     7.1101

     31  C    Isotropic =   130.3219   Anisotropy =    43.2500

     32  H    Isotropic =    31.6528   Anisotropy =    10.8392

     33  H    Isotropic =    30.2657   Anisotropy =    10.2884

     34  C    Isotropic =   143.4013   Anisotropy =    27.5718

     35  P    Isotropic =   295.0299   Anisotropy =    43.6766

     36  C    Isotropic =    40.0928   Anisotropy =   205.8878

     37  C    Isotropic =    41.7096   Anisotropy =   193.0359

     38  C    Isotropic =    51.3456   Anisotropy =   186.0854

     39  C    Isotropic =    50.4774   Anisotropy =   189.4686

     40  C    Isotropic =    52.4051   Anisotropy =   184.4155

     41  C    Isotropic =    42.5336   Anisotropy =   181.5911

     42  H    Isotropic =    22.9445   Anisotropy =     8.8567

     43  H    Isotropic =    23.7716   Anisotropy =     5.9525

     44  H    Isotropic =    23.8551   Anisotropy =     4.1032

     45  H    Isotropic =    24.0027   Anisotropy =     6.3864

     46  H    Isotropic =    23.9101   Anisotropy =    11.0777

     47  C    Isotropic =    35.7959   Anisotropy =   204.6327

     48  C    Isotropic =    49.3531   Anisotropy =   181.8923

     49  C    Isotropic =    51.7195   Anisotropy =   183.7897

     50  C    Isotropic =    54.2891   Anisotropy =   182.1731

     51  C    Isotropic =    51.6190   Anisotropy =   185.7334

     52  C    Isotropic =    47.1765   Anisotropy =   187.1578

     53  H    Isotropic =    23.7870   Anisotropy =    11.3345

     54  H    Isotropic =    23.9179   Anisotropy =     5.4784

     55  H    Isotropic =    24.0040   Anisotropy =     4.0803

     56  H    Isotropic =    23.8426   Anisotropy =     6.8237

     57  H    Isotropic =    23.5857   Anisotropy =    12.5450

     58  H    Isotropic =    29.0619   Anisotropy =     5.8977

     59  H    Isotropic =    24.7257   Anisotropy =     1.9611

     60  H    Isotropic =    28.7868   Anisotropy =     7.5113

     61  H    Isotropic =    29.3088   Anisotropy =     7.3308

 Normal termination of Gaussian 09 at Sun Dec  5 03:09:39 2021.
 Gaussian 09:  ES64L-G09RevE.01 30-Nov-2015

 ----------------------------------------------------------------------
 # PBE1PBE/def2TZVP int=(grid=ultrafine) empiricaldispersion=GD3BJ pop=
 nbo guess=read geom=check
 ----------------------------------------------------------------------

 ------------------
 RR_NorPhos_3 title
 ------------------
 Structure from the checkpoint file:  "RR_NorPhos_3_SPE_NoPd.chk"
 Charge =  0 Multiplicity = 1

                         Standard orientation:
 ---------------------------------------------------------------------
 Center     Atomic      Atomic             Coordinates (Angstroms)
 Number     Number       Type             X           Y           Z
 ---------------------------------------------------------------------
      1         15           0        1.629694   -0.088439   -0.709575
      2          6           0        2.426018   -1.717241   -0.493962
      3          6           0        3.102858   -2.242301   -1.617136
      4          6           0        3.738406   -3.485121   -1.524614
      5          6           0        3.695746   -4.218207   -0.328254
      6          6           0        3.010430   -3.705182    0.780840
      7          6           0        2.376622   -2.456673    0.702774
      8          1           0        1.836135   -2.066884    1.568623
      9          1           0        2.965828   -4.276696    1.714017
     10          1           0        4.190044   -5.193048   -0.264232
     11          1           0        4.261326   -3.887719   -2.397980
     12          1           0        3.103959   -1.679743   -2.558301
     13          6           0        2.981674    1.140346   -0.735318
     14          6           0        4.077475    0.989197    0.137310
     15          6           0        5.057970    1.987199    0.202243
     16          6           0        4.949119    3.132012   -0.601729
     17          6           0        3.862480    3.277320   -1.476176
     18          6           0        2.878077    2.283029   -1.549401
     19          1           0        2.049049    2.361898   -2.259384
     20          1           0        3.787332    4.160659   -2.118328
     21          1           0        5.720469    3.907578   -0.553849
     22          1           0        5.912552    1.866915    0.876097
     23          1           0        4.167574    0.086904    0.752248
     24          6           0        0.605687    0.450730    0.743134
     25          6           0        0.907847    0.775165    2.250519
     26          6           0        0.978674   -0.497233    3.083238
     27          6           0       -0.260179   -1.036903    3.120552
     28          1           0       -0.556411   -1.994665    3.557742
     29          6           0       -1.175422   -0.139285    2.286141
     30          1           0       -2.257008   -0.250501    2.446802
     31          6           0       -0.540819    1.239378    2.607235
     32          1           0       -0.914919    2.064734    1.978258
     33          1           0       -0.646506    1.500265    3.672268
     34          6           0       -0.679648   -0.412757    0.812723
     35         15           0       -1.617258   -0.037419   -0.751046
     36          6           0       -2.377777    1.600633   -0.468873
     37          6           0       -3.489048    1.743304    0.386020
     38          6           0       -3.979296    3.020632    0.683676
     39          6           0       -3.368799    4.156196    0.128158
     40          6           0       -2.274908    4.014880   -0.737612
     41          6           0       -1.780795    2.739314   -1.042534
     42          1           0       -0.949826    2.605763   -1.744852
     43          1           0       -1.812582    4.898059   -1.189762
     44          1           0       -3.757033    5.152997    0.361146
     45          1           0       -4.844110    3.130579    1.346056
     46          1           0       -3.973669    0.855186    0.805396
     47          6           0       -3.010891   -1.218614   -0.801042
     48          6           0       -3.142018   -2.246072    0.155132
     49          6           0       -4.235649   -3.120898    0.101657
     50          6           0       -5.201593   -2.978567   -0.903506
     51          6           0       -5.071049   -1.959935   -1.859404
     52          6           0       -3.983162   -1.081094   -1.814703
     53          1           0       -3.859107   -0.305803   -2.576551
     54          1           0       -5.817702   -1.851214   -2.652404
     55          1           0       -6.053854   -3.664526   -0.944582
     56          1           0       -4.329766   -3.915849    0.848624
     57          1           0       -2.397317   -2.371237    0.946284
     58          1           0       -0.416813   -1.482656    0.707465
     59          1           0        1.895177   -0.907290    3.515601
     60          1           0        1.719573    1.504189    2.384119
     61          1           0        0.322893    1.440485    0.326259
 ---------------------------------------------------------------------

 SCF Done:  E(RPBE1PBE) =  -1879.63037610     A.U. after    2 cycles

 The electronic state is 1-A.
 Alpha  occ. eigenvalues --  -77.19257 -77.19113 -10.24461 -10.24364 -10.24237
 Alpha  occ. eigenvalues --  -10.24213 -10.24095 -10.23889 -10.23859 -10.23846
 Alpha  occ. eigenvalues --  -10.23785 -10.23734 -10.23729 -10.23671 -10.23613
 Alpha  occ. eigenvalues --  -10.23473 -10.23458 -10.23358 -10.23269 -10.23207
 Alpha  occ. eigenvalues --  -10.23186 -10.23137 -10.23113 -10.23108 -10.23079
 Alpha  occ. eigenvalues --  -10.23041 -10.23015 -10.22988 -10.22957 -10.22957
 Alpha  occ. eigenvalues --  -10.22834 -10.22790 -10.22511  -6.58925  -6.58779
 Alpha  occ. eigenvalues --   -4.72515  -4.72507  -4.72376  -4.72359  -4.72045
 Alpha  occ. eigenvalues --   -4.71899  -0.91558  -0.88383  -0.88041  -0.87622
 Alpha  occ. eigenvalues --   -0.87480  -0.80119  -0.78665  -0.77304  -0.77021
 Alpha  occ. eigenvalues --   -0.76911  -0.76690  -0.76579  -0.76443  -0.76236
 Alpha  occ. eigenvalues --   -0.74275  -0.72373  -0.66663  -0.65098  -0.62777
 Alpha  occ. eigenvalues --   -0.62423  -0.62305  -0.61996  -0.61574  -0.61371
 Alpha  occ. eigenvalues --   -0.60484  -0.59175  -0.56727  -0.56497  -0.54041
 Alpha  occ. eigenvalues --   -0.53294  -0.53057  -0.52704  -0.51632  -0.50971
 Alpha  occ. eigenvalues --   -0.48101  -0.47192  -0.46968  -0.46852  -0.46537
 Alpha  occ. eigenvalues --   -0.46384  -0.46169  -0.45910  -0.45078  -0.43881
 Alpha  occ. eigenvalues --   -0.43705  -0.43478  -0.43433  -0.42732  -0.42581
 Alpha  occ. eigenvalues --   -0.41543  -0.41289  -0.39991  -0.39027  -0.38863
 Alpha  occ. eigenvalues --   -0.38340  -0.38229  -0.37970  -0.37677  -0.36928
 Alpha  occ. eigenvalues --   -0.36568  -0.36253  -0.36061  -0.35717  -0.35652
 Alpha  occ. eigenvalues --   -0.35464  -0.34415  -0.33172  -0.33093  -0.32413
 Alpha  occ. eigenvalues --   -0.30198  -0.28656  -0.27525  -0.27292  -0.27241
 Alpha  occ. eigenvalues --   -0.26984  -0.26843  -0.26559  -0.26428  -0.25853
 Alpha  occ. eigenvalues --   -0.22243  -0.19051
 Alpha virt. eigenvalues --   -0.03035  -0.02671  -0.02035  -0.01860  -0.01581
 Alpha virt. eigenvalues --   -0.01391  -0.00916  -0.00413   0.00155   0.03912
 Alpha virt. eigenvalues --    0.04625   0.05553   0.05616   0.06276   0.06584

 Mulliken charges:
               1
     1  P   -0.000840
     2  C    0.023480
     3  C   -0.145843
     4  C   -0.142164
     5  C   -0.092203
     6  C   -0.186424
     7  C   -0.051693
     8  H    0.126826
     9  H    0.114434
    10  H    0.117459
    11  H    0.117129
    12  H    0.121176
    13  C    0.132069
    14  C   -0.197441
    15  C   -0.117062
    16  C   -0.111124
    17  C   -0.116887
    18  C   -0.207654
    19  H    0.134506
    20  H    0.117297
    21  H    0.119169
    22  H    0.117603
    23  H    0.138768
    24  C   -0.299686
    25  C    0.178084
    26  C   -0.284602
    27  C   -0.200448
    28  H    0.118037
    29  C    0.065747
    30  H    0.122655
    31  C   -0.256299
    32  H    0.140880
    33  H    0.103875
    34  C   -0.208457
    35  P    0.064856
    36  C   -0.006763
    37  C   -0.140933
    38  C   -0.134207
    39  C   -0.102161
    40  C   -0.125474
    41  C   -0.153342
    42  H    0.133759
    43  H    0.119155
    44  H    0.120717
    45  H    0.119209
    46  H    0.142529
    47  C    0.135068
    48  C   -0.173374
    49  C   -0.163946
    50  C   -0.112843
    51  C   -0.116684
    52  C   -0.194764
    53  H    0.120062
    54  H    0.117256
    55  H    0.117140
    56  H    0.114457
    57  H    0.128004
    58  H    0.138686
    59  H    0.131956
    60  H    0.117898
    61  H    0.113372
 Sum of Mulliken charges =  -0.00000

 Dipole moment (field-independent basis, Debye):
    X=             -0.1931    Y=              0.9859    Z=              1.8476  Tot=              2.1030
 Quadrupole moment (field-independent basis, Debye-Ang):
   XX=           -195.3750   YY=           -191.2936   ZZ=           -205.4264
   XY=              0.4477   XZ=             -0.6187   YZ=             -6.9516

 Summary of Natural Population Analysis:

                                       Natural Population
                Natural  -----------------------------------------------
    Atom  No    Charge         Core      Valence    Rydberg      Total
 -----------------------------------------------------------------------
      P    1    0.85188      9.99790     4.11866    0.03156    14.14812
      C    2   -0.34262      1.99906     4.31187    0.03169     6.34262
      C    3   -0.20035      1.99913     4.18217    0.01905     6.20035
      C    4   -0.20926      1.99921     4.19162    0.01843     6.20926
      C    5   -0.21908      1.99922     4.20138    0.01848     6.21908
      C    6   -0.21041      1.99921     4.19328    0.01792     6.21041
      C    7   -0.22990      1.99911     4.21145    0.01934     6.22990
      H    8    0.22947      0.00000     0.76859    0.00194     0.77053
      H    9    0.21519      0.00000     0.78347    0.00134     0.78481
      H   10    0.21726      0.00000     0.78157    0.00117     0.78274
      H   11    0.21814      0.00000     0.78061    0.00125     0.78186
      H   12    0.22620      0.00000     0.77231    0.00149     0.77380
      C   13   -0.33348      1.99906     4.30177    0.03265     6.33348
      C   14   -0.20241      1.99911     4.18406    0.01924     6.20241
      C   15   -0.21265      1.99921     4.19541    0.01803     6.21265
      C   16   -0.21168      1.99922     4.19422    0.01825     6.21168
      C   17   -0.21450      1.99921     4.19669    0.01860     6.21450
      C   18   -0.20513      1.99912     4.18648    0.01952     6.20513
      H   19    0.22468      0.00000     0.77375    0.00158     0.77532
      H   20    0.21791      0.00000     0.78085    0.00125     0.78209
      H   21    0.21784      0.00000     0.78100    0.00116     0.78216
      H   22    0.21711      0.00000     0.78155    0.00134     0.78289
      H   23    0.22363      0.00000     0.77418    0.00219     0.77637
      C   24   -0.51252      1.99927     4.48493    0.02832     6.51252
      C   25   -0.28061      1.99936     4.26334    0.01791     6.28061
      C   26   -0.21590      1.99913     4.19728    0.01949     6.21590
      C   27   -0.19754      1.99913     4.18039    0.01803     6.19754
      H   28    0.22265      0.00000     0.77592    0.00144     0.77735
      C   29   -0.27894      1.99938     4.26154    0.01802     6.27894
      H   30    0.23133      0.00000     0.76678    0.00189     0.76867
      C   31   -0.38222      1.99945     4.36848    0.01429     6.38222
      H   32    0.21789      0.00000     0.78049    0.00162     0.78211
      H   33    0.22229      0.00000     0.77628    0.00143     0.77771
      C   34   -0.51280      1.99931     4.48698    0.02652     6.51280
      P   35    0.86130      9.99793     4.11029    0.03047    14.13870
      C   36   -0.34388      1.99906     4.31165    0.03318     6.34388
      C   37   -0.20203      1.99911     4.18330    0.01963     6.20203
      C   38   -0.21395      1.99921     4.19666    0.01807     6.21395
      C   39   -0.20840      1.99922     4.19097    0.01822     6.20840
      C   40   -0.21671      1.99921     4.19889    0.01860     6.21671
      C   41   -0.20963      1.99912     4.19082    0.01969     6.20963
      H   42    0.22927      0.00000     0.76912    0.00162     0.77073
      H   43    0.21998      0.00000     0.77877    0.00125     0.78002
      H   44    0.21908      0.00000     0.77976    0.00116     0.78092
      H   45    0.21874      0.00000     0.77992    0.00133     0.78126
      H   46    0.22569      0.00000     0.77215    0.00216     0.77431
      C   47   -0.33282      1.99908     4.30278    0.03096     6.33282
      C   48   -0.22299      1.99911     4.20478    0.01910     6.22299
      C   49   -0.20763      1.99921     4.19040    0.01801     6.20763
      C   50   -0.22331      1.99922     4.20554    0.01856     6.22331
      C   51   -0.20622      1.99922     4.18924    0.01777     6.20622
      C   52   -0.20722      1.99912     4.18909    0.01901     6.20722
      H   53    0.22217      0.00000     0.77620    0.00163     0.77783
      H   54    0.21788      0.00000     0.78087    0.00125     0.78212
      H   55    0.21754      0.00000     0.78130    0.00116     0.78246
      H   56    0.21631      0.00000     0.78241    0.00128     0.78369
      H   57    0.21401      0.00000     0.78406    0.00192     0.78599
      H   58    0.24375      0.00000     0.75365    0.00260     0.75625
      H   59    0.22508      0.00000     0.77346    0.00147     0.77492
      H   60    0.23521      0.00000     0.76264    0.00215     0.76479
      H   61    0.24735      0.00000     0.75043    0.00222     0.75265
 =======================================================================
   * Total *    0.00000     81.97062   161.27850    0.75089   244.00000

 Normal termination of Gaussian 09 at Sun Dec  5 03:14:26 2021.
