 Gaussian 09, Revision E.01,

 ----------------------------------------------------------------------
 # PBE1PBE gen pseudo=read int=(grid=ultrafine) empiricaldispersion=GD3
 BJ nmr=giao
 ----------------------------------------------------------------------

 ------------------
 RR_NorPhos_3 title
 ------------------
 Symbolic Z-matrix:
 Charge =  0 Multiplicity = 1

 SCF Done:  E(RPBE1PBE) =  -2927.82830857     A.U. after   24 cycles

      1  P    Isotropic =   235.7933   Anisotropy =   111.4970

      2  C    Isotropic =    47.5946   Anisotropy =   170.9157

      3  C    Isotropic =    39.6304   Anisotropy =   209.3150

      4  C    Isotropic =    49.2812   Anisotropy =   191.2901

      5  C    Isotropic =    48.1564   Anisotropy =   193.5884

      6  C    Isotropic =    54.1006   Anisotropy =   183.3308

      7  C    Isotropic =    49.6185   Anisotropy =   179.6705

      8  H    Isotropic =    22.9421   Anisotropy =     9.8615

      9  H    Isotropic =    23.8420   Anisotropy =     7.0299

     10  H    Isotropic =    23.6800   Anisotropy =     4.0627

     11  H    Isotropic =    23.6670   Anisotropy =     6.8716

     12  H    Isotropic =    21.7071   Anisotropy =    13.3907

     13  C    Isotropic =    44.1012   Anisotropy =   181.8859

     14  C    Isotropic =    46.5830   Anisotropy =   192.5117

     15  C    Isotropic =    53.0290   Anisotropy =   183.2337

     16  C    Isotropic =    48.6348   Anisotropy =   191.7268

     17  C    Isotropic =    50.9025   Anisotropy =   186.9387

     18  C    Isotropic =    39.4551   Anisotropy =   196.4526

     19  H    Isotropic =    21.8883   Anisotropy =    12.3676

     20  H    Isotropic =    23.4976   Anisotropy =     7.1445

     21  H    Isotropic =    23.7024   Anisotropy =     4.1197

     22  H    Isotropic =    23.9334   Anisotropy =     6.6042

     23  H    Isotropic =    24.1106   Anisotropy =    12.1298

     24  C    Isotropic =   125.4293   Anisotropy =    46.9018

     25  C    Isotropic =   138.6028   Anisotropy =    13.1737

     26  C    Isotropic =    38.5451   Anisotropy =   172.1529

     27  C    Isotropic =    34.3451   Anisotropy =   180.4606

     28  H    Isotropic =    24.1607   Anisotropy =     2.2333

     29  C    Isotropic =   139.5352   Anisotropy =     9.9176

     30  H    Isotropic =    28.6360   Anisotropy =     7.3185

     31  C    Isotropic =   129.9787   Anisotropy =    40.3207

     32  H    Isotropic =    31.4049   Anisotropy =     9.5866

     33  H    Isotropic =    30.0233   Anisotropy =    11.0630

     34  C    Isotropic =   134.2571   Anisotropy =    42.7239

     35  P    Isotropic =   248.0488   Anisotropy =    83.7998

     36  C    Isotropic =    46.0788   Anisotropy =   181.3848

     37  C    Isotropic =    45.4439   Anisotropy =   194.4984

     38  C    Isotropic =    52.2245   Anisotropy =   185.5359

     39  C    Isotropic =    48.0155   Anisotropy =   193.1759

     40  C    Isotropic =    51.0028   Anisotropy =   186.9763

     41  C    Isotropic =    37.1076   Anisotropy =   191.0259

     42  H    Isotropic =    21.6576   Anisotropy =    11.5932

     43  H    Isotropic =    23.5213   Anisotropy =     7.3124

     44  H    Isotropic =    23.6848   Anisotropy =     4.0635

     45  H    Isotropic =    23.9478   Anisotropy =     6.4411

     46  H    Isotropic =    24.2284   Anisotropy =    11.5162

     47  C    Isotropic =    45.8524   Anisotropy =   172.0505

     48  C    Isotropic =    49.3216   Anisotropy =   184.7406

     49  C    Isotropic =    53.2522   Anisotropy =   182.2440

     50  C    Isotropic =    48.1551   Anisotropy =   192.4806

     51  C    Isotropic =    50.0803   Anisotropy =   189.6625

     52  C    Isotropic =    38.8769   Anisotropy =   206.4141

     53  H    Isotropic =    21.8526   Anisotropy =    12.9726

     54  H    Isotropic =    23.6597   Anisotropy =     6.8198

     55  H    Isotropic =    23.6484   Anisotropy =     4.1553

     56  H    Isotropic =    23.7488   Anisotropy =     6.9312

     57  H    Isotropic =    23.5772   Anisotropy =    12.5812

     58  Pd   Isotropic =  -169.6496   Anisotropy =   276.9324

     59  Cl   Isotropic =   956.3112   Anisotropy =   530.6963

     60  Cl   Isotropic =   940.8729   Anisotropy =   532.9726

     61  H    Isotropic =    28.2217   Anisotropy =     3.8602

     62  H    Isotropic =    24.6668   Anisotropy =     2.5786

     63  H    Isotropic =    28.9775   Anisotropy =     7.4340

     64  H    Isotropic =    28.5119   Anisotropy =     5.9446

 Normal termination of Gaussian 09 at Tue Nov 30 22:40:14 2021.
 Gaussian 09:  ES64L-G09RevE.01 30-Nov-2015

 ----------------------------------------------------------------------
 # PBE1PBE gen pseudo=read int=(grid=ultrafine) empiricaldispersion=GD3
 BJ pop=nbo guess=read geom=check
 ----------------------------------------------------------------------

 ------------------
 RR_NorPhos_3 title
 ------------------
 Structure from the checkpoint file:  "RR_NorPhos_3_SPE.chk"
 Charge =  0 Multiplicity = 1

                         Standard orientation:
 ---------------------------------------------------------------------
 Center     Atomic      Atomic             Coordinates (Angstroms)
 Number     Number       Type             X           Y           Z
 ---------------------------------------------------------------------
      1         15           0       -1.621516    0.109778    0.036082
      2          6           0       -2.427051    1.748076    0.062704
      3          6           0       -3.112958    2.133077   -1.110595
      4          6           0       -3.755902    3.374489   -1.161611
      5          6           0       -3.711768    4.243845   -0.060346
      6          6           0       -3.017535    3.869182    1.097501
      7          6           0       -2.376220    2.623817    1.163554
      8          1           0       -1.828840    2.342001    2.066167
      9          1           0       -2.971782    4.547055    1.956473
     10          1           0       -4.211912    5.216597   -0.108877
     11          1           0       -4.285836    3.668237   -2.073301
     12          1           0       -3.115309    1.463402   -1.978808
     13          6           0       -2.965781   -1.121148    0.163355
     14          6           0       -4.058034   -0.874342    1.018443
     15          6           0       -5.031826   -1.863284    1.206367
     16          6           0       -4.919829   -3.094323    0.542427
     17          6           0       -3.836784   -3.335596   -0.315103
     18          6           0       -2.859103   -2.351294   -0.510846
     19          1           0       -2.033239   -2.508657   -1.211396
     20          1           0       -3.759321   -4.288089   -0.849002
     21          1           0       -5.685984   -3.863207    0.685959
     22          1           0       -5.883691   -1.669206    1.866306
     23          1           0       -4.150708    0.093677    1.523171
     24          6           0       -0.586676   -0.248372    1.536246
     25          6           0       -0.879043   -0.394399    3.073114
     26          6           0       -0.953680    0.966940    3.750330
     27          6           0        0.281896    1.514296    3.716492
     28          1           0        0.574277    2.518625    4.035918
     29          6           0        1.198533    0.529728    2.988460
     30          1           0        2.280200    0.665287    3.128565
     31          6           0        0.574351   -0.805014    3.473636
     32          1           0        0.950456   -1.696672    2.944235
     33          1           0        0.687147   -0.937808    4.561372
     34          6           0        0.693489    0.624608    1.495989
     35         15           0        1.625439    0.072732   -0.018034
     36          6           0        2.397779   -1.516221    0.450947
     37          6           0        3.514300   -1.550688    1.310199
     38          6           0        4.014167   -2.781157    1.753581
     39          6           0        3.408055   -3.977796    1.339464
     40          6           0        2.308867   -3.945859    0.469469
     41          6           0        1.805109   -2.718019    0.019102
     42          1           0        0.969720   -2.673009   -0.689204
     43          1           0        1.849847   -4.878840    0.127360
     44          1           0        3.803799   -4.937915    1.686136
     45          1           0        4.883044   -2.807249    2.419247
     46          1           0        3.995414   -0.616543    1.619051
     47          6           0        3.011269    1.247703   -0.215147
     48          6           0        3.140768    2.381534    0.612373
     49          6           0        4.228533    3.250160    0.449696
     50          6           0        5.190198    2.995732   -0.537282
     51          6           0        5.061229    1.870700   -1.365572
     52          6           0        3.979188    0.997085   -1.211168
     53          1           0        3.856156    0.136624   -1.875507
     54          1           0        5.804484    1.673430   -2.144555
     55          1           0        6.037865    3.676900   -0.663959
     56          1           0        4.321426    4.128218    1.097115
     57          1           0        2.399350    2.594927    1.387571
     58         46           0       -0.031276   -0.178920   -1.593185
     59         17           0        1.698598   -0.699340   -3.154325
     60         17           0       -1.790807   -0.466715   -3.178986
     61          1           0        0.423331    1.673098    1.266799
     62          1           0       -1.870541    1.419916    4.136647
     63          1           0       -1.685428   -1.107182    3.296512
     64          1           0       -0.299744   -1.278771    1.237387
 ---------------------------------------------------------------------

 SCF Done:  E(RPBE1PBE) =  -2927.82830857     A.U. after    2 cycles

 The electronic state is 1-A.
 Alpha  occ. eigenvalues -- -101.61237-101.61131 -77.26601 -77.26583 -10.27370
 Alpha  occ. eigenvalues --  -10.27250 -10.26850 -10.26819 -10.26242 -10.26235
 Alpha  occ. eigenvalues --  -10.26116 -10.25800 -10.25584 -10.25561 -10.25275
 Alpha  occ. eigenvalues --  -10.25250 -10.25177 -10.25124 -10.25117 -10.25099
 Alpha  occ. eigenvalues --  -10.25096 -10.24881 -10.24841 -10.24784 -10.24776
 Alpha  occ. eigenvalues --  -10.24765 -10.24698 -10.24646 -10.24531 -10.24480
 Alpha  occ. eigenvalues --  -10.24416 -10.24330 -10.24329 -10.24265 -10.24230
 Alpha  occ. eigenvalues --   -9.43749  -9.43639  -7.16926  -7.16814  -7.16483
 Alpha  occ. eigenvalues --   -7.16436  -7.16362  -7.16339  -6.65842  -6.65825
 Alpha  occ. eigenvalues --   -4.79439  -4.79425  -4.79402  -4.79375  -4.79174
 Alpha  occ. eigenvalues --   -4.79167  -3.51777  -2.19472  -2.19366  -2.16125
 Alpha  occ. eigenvalues --   -0.94192  -0.90083  -0.89710  -0.89375  -0.89075
 Alpha  occ. eigenvalues --   -0.83130  -0.81056  -0.79193  -0.78696  -0.78460
 Alpha  occ. eigenvalues --   -0.78221  -0.78145  -0.78096  -0.77931  -0.76791
 Alpha  occ. eigenvalues --   -0.74866  -0.73982  -0.73361  -0.69773  -0.67889
 Alpha  occ. eigenvalues --   -0.64408  -0.64125  -0.63762  -0.63654  -0.63254
 Alpha  occ. eigenvalues --   -0.63018  -0.62531  -0.61629  -0.59027  -0.58887
 Alpha  occ. eigenvalues --   -0.56296  -0.55516  -0.54655  -0.54509  -0.53841
 Alpha  occ. eigenvalues --   -0.53031  -0.50424  -0.48928  -0.48775  -0.48449
 Alpha  occ. eigenvalues --   -0.48267  -0.48079  -0.47821  -0.47552  -0.46763
 Alpha  occ. eigenvalues --   -0.45913  -0.45420  -0.45223  -0.44615  -0.44551
 Alpha  occ. eigenvalues --   -0.44438  -0.43833  -0.43452  -0.42468  -0.41604
 Alpha  occ. eigenvalues --   -0.41276  -0.40637  -0.40172  -0.39805  -0.39680
 Alpha  occ. eigenvalues --   -0.39273  -0.38815  -0.38599  -0.37980  -0.37516
 Alpha  occ. eigenvalues --   -0.37250  -0.37097  -0.36854  -0.36656  -0.36309
 Alpha  occ. eigenvalues --   -0.35823  -0.35686  -0.35206  -0.34424  -0.32177
 Alpha  occ. eigenvalues --   -0.31196  -0.30860  -0.30641  -0.30091  -0.29101
 Alpha  occ. eigenvalues --   -0.28823  -0.28556  -0.28226  -0.28091  -0.27938
 Alpha  occ. eigenvalues --   -0.27791  -0.26878  -0.26541  -0.25602  -0.24805
 Alpha  occ. eigenvalues --   -0.23835  -0.23674  -0.23453
 Alpha virt. eigenvalues --   -0.07427  -0.04741  -0.04457  -0.03935  -0.03314
 Alpha virt. eigenvalues --   -0.03040  -0.02699  -0.02379  -0.01730  -0.01618
 Alpha virt. eigenvalues --    0.00466   0.00869   0.03404   0.03862   0.03992

 Mulliken charges:
               1
     1  P    0.075724
     2  C    0.031898
     3  C   -0.140625
     4  C   -0.154626
     5  C   -0.076680
     6  C   -0.191244
     7  C   -0.033961
     8  H    0.123622
     9  H    0.120810
    10  H    0.125062
    11  H    0.131460
    12  H    0.155846
    13  C    0.114401
    14  C   -0.207432
    15  C   -0.130785
    16  C   -0.095179
    17  C   -0.133085
    18  C   -0.147598
    19  H    0.195573
    20  H    0.127588
    21  H    0.124358
    22  H    0.122649
    23  H    0.141899
    24  C   -0.343109
    25  C    0.197799
    26  C   -0.284204
    27  C   -0.202121
    28  H    0.127079
    29  C    0.096765
    30  H    0.132924
    31  C   -0.265303
    32  H    0.147039
    33  H    0.115693
    34  C   -0.209989
    35  P    0.165644
    36  C   -0.018862
    37  C   -0.156758
    38  C   -0.140555
    39  C   -0.091172
    40  C   -0.132557
    41  C   -0.093848
    42  H    0.205984
    43  H    0.129608
    44  H    0.126569
    45  H    0.124916
    46  H    0.145781
    47  C    0.090843
    48  C   -0.140737
    49  C   -0.171907
    50  C   -0.089360
    51  C   -0.129331
    52  C   -0.177925
    53  H    0.155457
    54  H    0.129958
    55  H    0.125468
    56  H    0.121100
    57  H    0.130402
    58  Pd   0.162633
    59  Cl  -0.425700
    60  Cl  -0.424804
    61  H    0.156175
    62  H    0.140107
    63  H    0.130592
    64  H    0.160035
 Sum of Mulliken charges =  -0.00000

 Dipole moment (field-independent basis, Debye):
    X=              0.5632    Y=              1.5769    Z=             11.6370  Tot=             11.7568
 Quadrupole moment (field-independent basis, Debye-Ang):
   XX=           -224.2966   YY=           -222.3535   ZZ=           -277.2346
   XY=              1.8851   XZ=             -0.1560   YZ=             -2.9051

 Summary of Natural Population Analysis:

                                       Natural Population
                Natural  -----------------------------------------------
    Atom  No    Charge         Core      Valence    Rydberg      Total
 -----------------------------------------------------------------------
      P    1    1.22798      9.99574     3.72218    0.05409    13.77202
      C    2   -0.38165      1.99901     4.34760    0.03504     6.38165
      C    3   -0.18235      1.99913     4.16516    0.01805     6.18235
      C    4   -0.20344      1.99921     4.18627    0.01795     6.20344
      C    5   -0.19603      1.99922     4.17884    0.01798     6.19603
      C    6   -0.21586      1.99921     4.19892    0.01774     6.21586
      C    7   -0.21608      1.99911     4.19799    0.01898     6.21608
      H    8    0.22872      0.00000     0.76932    0.00196     0.77128
      H    9    0.21952      0.00000     0.77921    0.00127     0.78048
      H   10    0.22119      0.00000     0.77765    0.00116     0.77881
      H   11    0.22662      0.00000     0.77217    0.00121     0.77338
      H   12    0.26664      0.00000     0.73191    0.00145     0.73336
      C   13   -0.36825      1.99901     4.33259    0.03665     6.36825
      C   14   -0.19963      1.99911     4.18096    0.01956     6.19963
      C   15   -0.21414      1.99921     4.19720    0.01773     6.21414
      C   16   -0.19582      1.99922     4.17873    0.01787     6.19582
      C   17   -0.20863      1.99921     4.19120    0.01822     6.20863
      C   18   -0.17349      1.99911     4.15578    0.01860     6.17349
      H   19    0.25165      0.00000     0.74695    0.00140     0.74835
      H   20    0.22503      0.00000     0.77376    0.00122     0.77497
      H   21    0.22107      0.00000     0.77778    0.00115     0.77893
      H   22    0.22145      0.00000     0.77729    0.00126     0.77855
      H   23    0.22456      0.00000     0.77347    0.00197     0.77544
      C   24   -0.53144      1.99926     4.49954    0.03264     6.53144
      C   25   -0.27384      1.99936     4.25567    0.01881     6.27384
      C   26   -0.21155      1.99913     4.19354    0.01887     6.21155
      C   27   -0.19382      1.99913     4.17648    0.01821     6.19382
      H   28    0.22742      0.00000     0.77119    0.00138     0.77258
      C   29   -0.27566      1.99938     4.25703    0.01925     6.27566
      H   30    0.23721      0.00000     0.76084    0.00195     0.76279
      C   31   -0.38166      1.99945     4.36771    0.01450     6.38166
      H   32    0.22120      0.00000     0.77719    0.00160     0.77880
      H   33    0.22798      0.00000     0.77067    0.00136     0.77202
      C   34   -0.53751      1.99929     4.50709    0.03113     6.53751
      P   35    1.22510      9.99577     3.72468    0.05445    13.77490
      C   36   -0.37496      1.99901     4.33993    0.03601     6.37496
      C   37   -0.19906      1.99910     4.17975    0.02022     6.19906
      C   38   -0.21274      1.99921     4.19559    0.01793     6.21274
      C   39   -0.19486      1.99922     4.17782    0.01781     6.19486
      C   40   -0.20945      1.99921     4.19204    0.01820     6.20945
      C   41   -0.18174      1.99910     4.16418    0.01845     6.18174
      H   42    0.24790      0.00000     0.75066    0.00144     0.75210
      H   43    0.22659      0.00000     0.77219    0.00122     0.77341
      H   44    0.22266      0.00000     0.77620    0.00114     0.77734
      H   45    0.22322      0.00000     0.77555    0.00124     0.77678
      H   46    0.22663      0.00000     0.77111    0.00226     0.77337
      C   47   -0.37724      1.99903     4.34292    0.03529     6.37724
      C   48   -0.20287      1.99911     4.18510    0.01866     6.20287
      C   49   -0.21567      1.99921     4.19862    0.01784     6.21567
      C   50   -0.19442      1.99922     4.17730    0.01790     6.19442
      C   51   -0.20453      1.99921     4.18783    0.01748     6.20453
      C   52   -0.17542      1.99912     4.15761    0.01868     6.17542
      H   53    0.26179      0.00000     0.73640    0.00181     0.73821
      H   54    0.22623      0.00000     0.77256    0.00120     0.77377
      H   55    0.22168      0.00000     0.77718    0.00115     0.77832
      H   56    0.22117      0.00000     0.77760    0.00123     0.77883
      H   57    0.21466      0.00000     0.78353    0.00180     0.78534
     Pd   58   -0.16526     35.98907    10.15251    0.02368    46.16526
     Cl   59   -0.43752      9.99963     7.42938    0.00851    17.43752
     Cl   60   -0.43882      9.99963     7.43029    0.00889    17.43882
      H   61    0.24975      0.00000     0.74767    0.00258     0.75025
      H   62    0.22971      0.00000     0.76893    0.00135     0.77029
      H   63    0.24215      0.00000     0.75601    0.00184     0.75785
      H   64    0.25791      0.00000     0.73961    0.00248     0.74209
 =======================================================================
   * Total *   -0.00000    137.95439   185.19065    0.85496   324.00000

 Normal termination of Gaussian 09 at Tue Nov 30 22:46:17 2021.
