 Gaussian 09, Revision E.01,

 ----------------------------------------------------------------------
 # PBE1PBE gen pseudo=read int=(grid=ultrafine) empiricaldispersion=GD3
 BJ nmr=giao
 ----------------------------------------------------------------------

 ------------------
 RR_NorPhos_2 title
 ------------------
 Symbolic Z-matrix:
 Charge =  0 Multiplicity = 1

 SCF Done:  E(RPBE1PBE) =  -2927.82953254     A.U. after   20 cycles

      1  P    Isotropic =   242.7475   Anisotropy =   130.2747

      2  C    Isotropic =    50.7322   Anisotropy =   176.8152

      3  C    Isotropic =    37.0896   Anisotropy =   190.2605

      4  C    Isotropic =    51.2049   Anisotropy =   186.6452

      5  C    Isotropic =    48.0760   Anisotropy =   192.8145

      6  C    Isotropic =    52.9010   Anisotropy =   184.4632

      7  C    Isotropic =    46.1687   Anisotropy =   197.0079

      8  H    Isotropic =    23.3412   Anisotropy =    11.6764

      9  H    Isotropic =    23.8343   Anisotropy =     6.3761

     10  H    Isotropic =    23.6594   Anisotropy =     4.0463

     11  H    Isotropic =    23.6280   Anisotropy =     7.2852

     12  H    Isotropic =    22.1091   Anisotropy =    12.3016

     13  C    Isotropic =    47.7459   Anisotropy =   173.9316

     14  C    Isotropic =    46.7879   Anisotropy =   181.1785

     15  C    Isotropic =    53.4121   Anisotropy =   182.9265

     16  C    Isotropic =    47.7942   Anisotropy =   193.6053

     17  C    Isotropic =    49.8803   Anisotropy =   189.8458

     18  C    Isotropic =    36.2295   Anisotropy =   205.7698

     19  H    Isotropic =    21.0043   Anisotropy =    14.8140

     20  H    Isotropic =    23.4811   Anisotropy =     7.2120

     21  H    Isotropic =    23.5757   Anisotropy =     4.1673

     22  H    Isotropic =    23.6631   Anisotropy =     6.5460

     23  H    Isotropic =    23.0175   Anisotropy =    11.0253

     24  C    Isotropic =   130.2447   Anisotropy =    43.5159

     25  C    Isotropic =   136.8131   Anisotropy =    14.2360

     26  C    Isotropic =    44.1247   Anisotropy =   170.9030

     27  C    Isotropic =    36.9470   Anisotropy =   181.2624

     28  H    Isotropic =    24.9843   Anisotropy =     2.5617

     29  C    Isotropic =   141.1180   Anisotropy =    11.4296

     30  H    Isotropic =    28.7405   Anisotropy =     7.4464

     31  C    Isotropic =   131.5465   Anisotropy =    35.2768

     32  H    Isotropic =    30.6595   Anisotropy =     8.4973

     33  H    Isotropic =    29.9387   Anisotropy =    12.5188

     34  C    Isotropic =   130.8658   Anisotropy =    63.8929

     35  P    Isotropic =   238.4404   Anisotropy =    75.6795

     36  C    Isotropic =    46.7178   Anisotropy =   180.8884

     37  C    Isotropic =    36.2170   Anisotropy =   194.3245

     38  C    Isotropic =    50.7894   Anisotropy =   187.9464

     39  C    Isotropic =    47.5979   Anisotropy =   194.2241

     40  C    Isotropic =    52.3159   Anisotropy =   185.7439

     41  C    Isotropic =    45.1950   Anisotropy =   194.0766

     42  H    Isotropic =    24.0600   Anisotropy =    11.5271

     43  H    Isotropic =    23.9219   Anisotropy =     6.3546

     44  H    Isotropic =    23.6863   Anisotropy =     3.9443

     45  H    Isotropic =    23.6471   Anisotropy =     7.2984

     46  H    Isotropic =    22.0178   Anisotropy =    11.8971

     47  C    Isotropic =    45.4682   Anisotropy =   174.4848

     48  C    Isotropic =    49.2956   Anisotropy =   185.9793

     49  C    Isotropic =    53.3368   Anisotropy =   183.1838

     50  C    Isotropic =    48.3617   Anisotropy =   191.9656

     51  C    Isotropic =    51.1269   Anisotropy =   188.5452

     52  C    Isotropic =    38.7618   Anisotropy =   203.6932

     53  H    Isotropic =    22.9620   Anisotropy =    12.0901

     54  H    Isotropic =    23.7068   Anisotropy =     6.6982

     55  H    Isotropic =    23.6372   Anisotropy =     4.0558

     56  H    Isotropic =    23.7114   Anisotropy =     6.9158

     57  H    Isotropic =    23.5225   Anisotropy =    12.2480

     58  Pd   Isotropic =  -157.6359   Anisotropy =   276.2035

     59  Cl   Isotropic =   921.4587   Anisotropy =   525.5737

     60  Cl   Isotropic =   972.4187   Anisotropy =   605.3848

     61  H    Isotropic =    28.6074   Anisotropy =     4.0437

     62  H    Isotropic =    25.5403   Anisotropy =     5.3698

     63  H    Isotropic =    28.2826   Anisotropy =     9.4109

     64  H    Isotropic =    28.9260   Anisotropy =     6.1087

 Normal termination of Gaussian 09 at Sun Dec  5 03:59:54 2021.
 Gaussian 09:  ES64L-G09RevE.01 30-Nov-2015

 ----------------------------------------------------------------------
 # PBE1PBE gen pseudo=read int=(grid=ultrafine) empiricaldispersion=GD3
 BJ pop=nbo guess=read geom=check
 ----------------------------------------------------------------------

 ------------------
 RR_NorPhos_2 title
 ------------------
 Structure from the checkpoint file:  "RR_NorPhos_2_SPE.chk"
 Charge =  0 Multiplicity = 1

                         Standard orientation:
 ---------------------------------------------------------------------
 Center     Atomic      Atomic             Coordinates (Angstroms)
 Number     Number       Type             X           Y           Z
 ---------------------------------------------------------------------
      1         15           0       -1.632098    0.038745   -0.035401
      2          6           0       -2.377710    1.710203   -0.005747
      3          6           0       -1.712866    2.729164   -0.716079
      4          6           0       -2.182452    4.047890   -0.654396
      5          6           0       -3.324199    4.352342    0.099516
      6          6           0       -4.005705    3.334267    0.784291
      7          6           0       -3.537369    2.015677    0.732617
      8          1           0       -4.086344    1.223113    1.249911
      9          1           0       -4.911605    3.566453    1.353896
     10          1           0       -3.696066    5.381292    0.140306
     11          1           0       -1.664113    4.833957   -1.212655
     12          1           0       -0.847727    2.467321   -1.336875
     13          6           0       -2.970342   -1.210146    0.033965
     14          6           0       -3.710804   -1.412568    1.219208
     15          6           0       -4.716901   -2.385728    1.265143
     16          6           0       -4.987503   -3.169388    0.134084
     17          6           0       -4.250480   -2.975529   -1.042193
     18          6           0       -3.244202   -2.001794   -1.098602
     19          1           0       -2.678146   -1.830151   -2.020417
     20          1           0       -4.457654   -3.584203   -1.928167
     21          1           0       -5.772155   -3.932085    0.172415
     22          1           0       -5.286199   -2.534153    2.188584
     23          1           0       -3.505592   -0.814222    2.111186
     24          6           0       -0.673961   -0.173010    1.549346
     25          6           0       -1.064642    0.050380    3.054701
     26          6           0       -1.225323    1.539591    3.329786
     27          6           0        0.002075    2.100707    3.273902
     28          1           0        0.246218    3.165873    3.315520
     29          6           0        0.994615    0.995548    2.908245
     30          1           0        2.059944    1.201305    3.084282
     31          6           0        0.352523   -0.196604    3.654670
     32          1           0        0.782416   -1.176358    3.384010
     33          1           0        0.372843   -0.063204    4.748341
     34          6           0        0.599625    0.709034    1.409403
     35         15           0        1.610941   -0.071382    0.066637
     36          6           0        2.209824   -1.678385    0.691907
     37          6           0        1.654988   -2.859845    0.164749
     38          6           0        2.036301   -4.103152    0.687923
     39          6           0        2.970682   -4.169288    1.731036
     40          6           0        3.535030   -2.992574    2.249593
     41          6           0        3.160747   -1.747246    1.730676
     42          1           0        3.612093   -0.829071    2.121668
     43          1           0        4.273001   -3.046618    3.056585
     44          1           0        3.269455   -5.141188    2.136977
     45          1           0        1.608564   -5.020947    0.272256
     46          1           0        0.943712   -2.786473   -0.666168
     47          6           0        3.095342    0.969102   -0.128836
     48          6           0        3.137533    2.283345    0.377782
     49          6           0        4.285780    3.066934    0.202658
     50          6           0        5.394108    2.547125   -0.479933
     51          6           0        5.352203    1.241657   -0.991964
     52          6           0        4.209278    0.452442   -0.822968
     53          1           0        4.164389   -0.554453   -1.245915
     54          1           0        6.211345    0.836859   -1.536047
     55          1           0        6.289275    3.161932   -0.618208
     56          1           0        4.311670    4.086579    0.600497
     57          1           0        2.277733    2.703452    0.908202
     58         46           0        0.045856   -0.203604   -1.597419
     59         17           0        1.862948   -0.680759   -3.060031
     60         17           0       -1.582616   -0.010659   -3.328561
     61          1           0        0.314908    1.672695    0.942556
     62          1           0       -2.181468    2.055031    3.442546
     63          1           0       -1.862613   -0.613987    3.414150
     64          1           0       -0.382745   -1.240221    1.472476
 ---------------------------------------------------------------------

 SCF Done:  E(RPBE1PBE) =  -2927.82953254     A.U. after    2 cycles

 The electronic state is 1-A.
 Alpha  occ. eigenvalues -- -101.61121-101.60999 -77.26522 -77.26455 -10.27127
 Alpha  occ. eigenvalues --  -10.26981 -10.26653 -10.26504 -10.26351 -10.26150
 Alpha  occ. eigenvalues --  -10.26128 -10.26084 -10.25809 -10.25577 -10.25436
 Alpha  occ. eigenvalues --  -10.25411 -10.25338 -10.25296 -10.25257 -10.24989
 Alpha  occ. eigenvalues --  -10.24973 -10.24896 -10.24874 -10.24840 -10.24817
 Alpha  occ. eigenvalues --  -10.24749 -10.24667 -10.24639 -10.24634 -10.24605
 Alpha  occ. eigenvalues --  -10.24581 -10.24461 -10.24314 -10.24272 -10.24171
 Alpha  occ. eigenvalues --   -9.43621  -9.43511  -7.16805  -7.16684  -7.16345
 Alpha  occ. eigenvalues --   -7.16313  -7.16250  -7.16196  -6.65781  -6.65682
 Alpha  occ. eigenvalues --   -4.79370  -4.79343  -4.79270  -4.79236  -4.79117
 Alpha  occ. eigenvalues --   -4.79032  -3.51776  -2.19460  -2.19342  -2.16153
 Alpha  occ. eigenvalues --   -0.93945  -0.90181  -0.89834  -0.89367  -0.89264
 Alpha  occ. eigenvalues --   -0.82898  -0.81044  -0.78986  -0.78822  -0.78509
 Alpha  occ. eigenvalues --   -0.78465  -0.78226  -0.78136  -0.78126  -0.76624
 Alpha  occ. eigenvalues --   -0.74736  -0.73829  -0.73239  -0.69705  -0.67784
 Alpha  occ. eigenvalues --   -0.64440  -0.64311  -0.64072  -0.63640  -0.63273
 Alpha  occ. eigenvalues --   -0.63158  -0.62357  -0.61503  -0.59192  -0.58693
 Alpha  occ. eigenvalues --   -0.56076  -0.55327  -0.54643  -0.54534  -0.53706
 Alpha  occ. eigenvalues --   -0.53137  -0.50551  -0.48891  -0.48766  -0.48705
 Alpha  occ. eigenvalues --   -0.48468  -0.48051  -0.47894  -0.47638  -0.47032
 Alpha  occ. eigenvalues --   -0.46211  -0.45324  -0.45209  -0.45017  -0.44615
 Alpha  occ. eigenvalues --   -0.44537  -0.43839  -0.43066  -0.42229  -0.41641
 Alpha  occ. eigenvalues --   -0.41330  -0.40616  -0.40310  -0.39707  -0.39622
 Alpha  occ. eigenvalues --   -0.39174  -0.38747  -0.38493  -0.37949  -0.37724
 Alpha  occ. eigenvalues --   -0.37277  -0.37002  -0.36978  -0.36719  -0.36284
 Alpha  occ. eigenvalues --   -0.35934  -0.35578  -0.34878  -0.34538  -0.32178
 Alpha  occ. eigenvalues --   -0.31322  -0.31049  -0.30215  -0.29385  -0.29095
 Alpha  occ. eigenvalues --   -0.28874  -0.28589  -0.28258  -0.28160  -0.28107
 Alpha  occ. eigenvalues --   -0.28013  -0.27225  -0.26338  -0.25623  -0.24832
 Alpha  occ. eigenvalues --   -0.23712  -0.23586  -0.23203
 Alpha virt. eigenvalues --   -0.07241  -0.05118  -0.04864  -0.03644  -0.03421
 Alpha virt. eigenvalues --   -0.02922  -0.02794  -0.02465  -0.02111  -0.01161
 Alpha virt. eigenvalues --    0.00552   0.00704   0.03333   0.03521   0.03991

 Mulliken charges:
               1
     1  P    0.170247
     2  C    0.153651
     3  C   -0.133013
     4  C   -0.135306
     5  C   -0.102231
     6  C   -0.128087
     7  C   -0.223237
     8  H    0.123389
     9  H    0.125079
    10  H    0.125389
    11  H    0.130677
    12  H    0.217935
    13  C    0.103948
    14  C   -0.207360
    15  C   -0.157597
    16  C   -0.098882
    17  C   -0.138745
    18  C   -0.164095
    19  H    0.169849
    20  H    0.132129
    21  H    0.124994
    22  H    0.122476
    23  H    0.143610
    24  C   -0.265913
    25  C    0.117388
    26  C   -0.203674
    27  C   -0.232778
    28  H    0.126466
    29  C    0.079947
    30  H    0.137498
    31  C   -0.249731
    32  H    0.138457
    33  H    0.114368
    34  C   -0.243479
    35  P    0.205319
    36  C   -0.030076
    37  C   -0.096562
    38  C   -0.128665
    39  C   -0.093632
    40  C   -0.116352
    41  C   -0.183466
    42  H    0.137475
    43  H    0.126204
    44  H    0.127476
    45  H    0.131328
    46  H    0.208133
    47  C    0.139352
    48  C   -0.178561
    49  C   -0.154245
    50  C   -0.097945
    51  C   -0.118602
    52  C   -0.190208
    53  H    0.157037
    54  H    0.127991
    55  H    0.125129
    56  H    0.121598
    57  H    0.132815
    58  Pd   0.057057
    59  Cl  -0.421420
    60  Cl  -0.422874
    61  H    0.155941
    62  H    0.128374
    63  H    0.115340
    64  H    0.162667
 Sum of Mulliken charges =  -0.00000

 Dipole moment (field-independent basis, Debye):
    X=             -0.0289    Y=              0.8329    Z=             11.7316  Tot=             11.7612
 Quadrupole moment (field-independent basis, Debye-Ang):
   XX=           -223.2241   YY=           -219.8527   ZZ=           -280.8084
   XY=              5.6723   XZ=             -2.1848   YZ=             -3.2680

 Summary of Natural Population Analysis:

                                       Natural Population
                Natural  -----------------------------------------------
    Atom  No    Charge         Core      Valence    Rydberg      Total
 -----------------------------------------------------------------------
      P    1    1.21581      9.99579     3.73453    0.05387    13.78419
      C    2   -0.37018      1.99900     4.33461    0.03657     6.37018
      C    3   -0.17600      1.99911     4.15860    0.01829     6.17600
      C    4   -0.20847      1.99921     4.19103    0.01824     6.20847
      C    5   -0.19423      1.99922     4.17705    0.01796     6.19423
      C    6   -0.21311      1.99921     4.19629    0.01762     6.21311
      C    7   -0.19540      1.99911     4.17667    0.01962     6.19540
      H    8    0.22249      0.00000     0.77557    0.00194     0.77751
      H    9    0.22159      0.00000     0.77715    0.00126     0.77841
      H   10    0.22177      0.00000     0.77708    0.00115     0.77823
      H   11    0.22612      0.00000     0.77266    0.00123     0.77388
      H   12    0.24745      0.00000     0.75110    0.00145     0.75255
      C   13   -0.37674      1.99901     4.34326    0.03447     6.37674
      C   14   -0.20814      1.99911     4.19003    0.01900     6.20814
      C   15   -0.21719      1.99921     4.20022    0.01776     6.21719
      C   16   -0.19282      1.99922     4.17576    0.01784     6.19282
      C   17   -0.20533      1.99921     4.18833    0.01779     6.20533
      C   18   -0.17432      1.99914     4.15709    0.01810     6.17432
      H   19    0.27019      0.00000     0.72824    0.00157     0.72981
      H   20    0.22664      0.00000     0.77216    0.00120     0.77336
      H   21    0.22146      0.00000     0.77738    0.00116     0.77854
      H   22    0.22093      0.00000     0.77780    0.00126     0.77907
      H   23    0.21280      0.00000     0.78519    0.00200     0.78720
      C   24   -0.52864      1.99927     4.49726    0.03210     6.52864
      C   25   -0.27058      1.99937     4.25295    0.01827     6.27058
      C   26   -0.19922      1.99912     4.18106    0.01904     6.19922
      C   27   -0.19553      1.99914     4.17763    0.01877     6.19553
      H   28    0.22782      0.00000     0.77082    0.00136     0.77218
      C   29   -0.27751      1.99937     4.25915    0.01899     6.27751
      H   30    0.23638      0.00000     0.76164    0.00198     0.76362
      C   31   -0.38358      1.99945     4.36979    0.01434     6.38358
      H   32    0.21789      0.00000     0.78053    0.00157     0.78211
      H   33    0.22718      0.00000     0.77142    0.00139     0.77282
      C   34   -0.54375      1.99930     4.51188    0.03258     6.54375
      P   35    1.24516      9.99563     3.70376    0.05545    13.75484
      C   36   -0.38656      1.99902     4.35130    0.03624     6.38656
      C   37   -0.17707      1.99910     4.15967    0.01829     6.17707
      C   38   -0.20893      1.99921     4.19153    0.01818     6.20893
      C   39   -0.19332      1.99922     4.17625    0.01785     6.19332
      C   40   -0.21383      1.99921     4.19692    0.01770     6.21383
      C   41   -0.19714      1.99911     4.17838    0.01966     6.19714
      H   42    0.22611      0.00000     0.77195    0.00194     0.77389
      H   43    0.22350      0.00000     0.77524    0.00125     0.77650
      H   44    0.22276      0.00000     0.77610    0.00114     0.77724
      H   45    0.22728      0.00000     0.77151    0.00121     0.77272
      H   46    0.25032      0.00000     0.74829    0.00139     0.74968
      C   47   -0.37699      1.99902     4.34166    0.03630     6.37699
      C   48   -0.20013      1.99911     4.18241    0.01860     6.20013
      C   49   -0.21468      1.99921     4.19768    0.01779     6.21468
      C   50   -0.19395      1.99922     4.17683    0.01790     6.19395
      C   51   -0.20615      1.99921     4.18928    0.01765     6.20615
      C   52   -0.16679      1.99912     4.14861    0.01906     6.16679
      H   53    0.24889      0.00000     0.74947    0.00164     0.75111
      H   54    0.22552      0.00000     0.77327    0.00121     0.77448
      H   55    0.22166      0.00000     0.77719    0.00114     0.77834
      H   56    0.22144      0.00000     0.77733    0.00123     0.77856
      H   57    0.21595      0.00000     0.78228    0.00177     0.78405
     Pd   58   -0.19060     35.98902    10.17769    0.02389    46.19060
     Cl   59   -0.42424      9.99963     7.41585    0.00875    17.42424
     Cl   60   -0.43567      9.99963     7.42715    0.00890    17.43567
      H   61    0.25699      0.00000     0.74033    0.00268     0.74301
      H   62    0.23092      0.00000     0.76761    0.00147     0.76908
      H   63    0.23057      0.00000     0.76767    0.00177     0.76943
      H   64    0.25317      0.00000     0.74445    0.00238     0.74683
 =======================================================================
   * Total *    0.00000    137.95423   185.18961    0.85616   324.00000

 Normal termination of Gaussian 09 at Sun Dec  5 04:06:34 2021.
