 Gaussian 09, Revision E.01,

 ----------------------------------------------------------------------
 # PBE1PBE/def2TZVP int=(grid=ultrafine) empiricaldispersion=GD3BJ nmr=
 giao
 ----------------------------------------------------------------------

 ------------------
 RR_NorPhos_1 title
 ------------------
 Symbolic Z-matrix:
 Charge =  0 Multiplicity = 1

 SCF Done:  E(RPBE1PBE) =  -1879.63693578     A.U. after   14 cycles

      1  P    Isotropic =   297.2444   Anisotropy =    39.5611

      2  C    Isotropic =    41.1350   Anisotropy =   204.6446

      3  C    Isotropic =    40.8287   Anisotropy =   185.6828

      4  C    Isotropic =    52.6387   Anisotropy =   184.4928

      5  C    Isotropic =    50.0165   Anisotropy =   190.5055

      6  C    Isotropic =    51.5237   Anisotropy =   185.7057

      7  C    Isotropic =    40.7024   Anisotropy =   194.2865

      8  H    Isotropic =    23.7197   Anisotropy =    11.2118

      9  H    Isotropic =    23.9565   Anisotropy =     6.2722

     10  H    Isotropic =    23.8028   Anisotropy =     3.8730

     11  H    Isotropic =    23.8527   Anisotropy =     5.7111

     12  H    Isotropic =    23.2393   Anisotropy =     8.9541

     13  C    Isotropic =    35.0137   Anisotropy =   201.8135

     14  C    Isotropic =    51.3433   Anisotropy =   181.8039

     15  C    Isotropic =    52.0528   Anisotropy =   184.0999

     16  C    Isotropic =    55.2717   Anisotropy =   180.5967

     17  C    Isotropic =    51.6649   Anisotropy =   185.5277

     18  C    Isotropic =    48.3852   Anisotropy =   187.2997

     19  H    Isotropic =    23.9824   Anisotropy =    12.0666

     20  H    Isotropic =    23.9540   Anisotropy =     5.5628

     21  H    Isotropic =    24.0513   Anisotropy =     3.8417

     22  H    Isotropic =    23.8744   Anisotropy =     6.6482

     23  H    Isotropic =    23.7140   Anisotropy =    12.0768

     24  C    Isotropic =   142.3821   Anisotropy =    32.2739

     25  C    Isotropic =   139.3004   Anisotropy =    18.8350

     26  C    Isotropic =    44.5567   Anisotropy =   167.9567

     27  C    Isotropic =    39.1933   Anisotropy =   177.8728

     28  H    Isotropic =    25.2150   Anisotropy =     1.5690

     29  C    Isotropic =   141.9295   Anisotropy =    11.6278

     30  H    Isotropic =    28.5061   Anisotropy =     7.4461

     31  C    Isotropic =   131.9879   Anisotropy =    39.1991

     32  H    Isotropic =    30.8414   Anisotropy =     9.7659

     33  H    Isotropic =    30.0960   Anisotropy =    11.4566

     34  C    Isotropic =   141.2786   Anisotropy =    35.0463

     35  P    Isotropic =   294.2357   Anisotropy =    34.1931

     36  C    Isotropic =    40.5570   Anisotropy =   206.1313

     37  C    Isotropic =    40.6497   Anisotropy =   185.0755

     38  C    Isotropic =    52.1241   Anisotropy =   185.3765

     39  C    Isotropic =    49.9099   Anisotropy =   190.5523

     40  C    Isotropic =    51.2550   Anisotropy =   186.1041

     41  C    Isotropic =    40.9371   Anisotropy =   191.1702

     42  H    Isotropic =    23.6967   Anisotropy =    11.0032

     43  H    Isotropic =    23.9111   Anisotropy =     6.3947

     44  H    Isotropic =    23.7476   Anisotropy =     3.9160

     45  H    Isotropic =    23.7278   Anisotropy =     5.5900

     46  H    Isotropic =    23.0305   Anisotropy =     8.4804

     47  C    Isotropic =    34.6580   Anisotropy =   203.2439

     48  C    Isotropic =    50.8610   Anisotropy =   180.4810

     49  C    Isotropic =    52.0542   Anisotropy =   183.8394

     50  C    Isotropic =    55.0417   Anisotropy =   181.0409

     51  C    Isotropic =    51.5963   Anisotropy =   185.8086

     52  C    Isotropic =    47.9416   Anisotropy =   187.1230

     53  H    Isotropic =    23.9363   Anisotropy =    11.9641

     54  H    Isotropic =    23.9366   Anisotropy =     5.6227

     55  H    Isotropic =    24.0280   Anisotropy =     3.9124

     56  H    Isotropic =    23.8439   Anisotropy =     6.6773

     57  H    Isotropic =    23.6740   Anisotropy =    12.1952

     58  H    Isotropic =    29.5012   Anisotropy =     8.0352

     59  H    Isotropic =    25.7305   Anisotropy =     5.1418

     60  H    Isotropic =    28.1168   Anisotropy =     7.8645

     61  H    Isotropic =    29.0139   Anisotropy =     7.7648

 Normal termination of Gaussian 09 at Sun Dec  5 03:07:11 2021.
 Gaussian 09:  ES64L-G09RevE.01 30-Nov-2015

 ----------------------------------------------------------------------
 # PBE1PBE/def2TZVP int=(grid=ultrafine) empiricaldispersion=GD3BJ pop=
 nbo guess=read geom=check
 ----------------------------------------------------------------------

 ------------------
 RR_NorPhos_1 title
 ------------------
 Structure from the checkpoint file:  "RR_NorPhos_1_SPE_NoPd.chk"
 Charge =  0 Multiplicity = 1

                         Standard orientation:
 ---------------------------------------------------------------------
 Center     Atomic      Atomic             Coordinates (Angstroms)
 Number     Number       Type             X           Y           Z
 ---------------------------------------------------------------------
      1         15           0        1.598411   -0.005509   -0.737689
      2          6           0        2.311565   -1.666955   -0.485582
      3          6           0        1.711452   -2.762150   -1.134887
      4          6           0        2.183914   -4.059797   -0.895048
      5          6           0        3.260547   -4.264524   -0.020814
      6          6           0        3.874526   -3.171059    0.610917
      7          6           0        3.404313   -1.872837    0.380222
      8          1           0        3.890295   -1.016490    0.859743
      9          1           0        4.726214   -3.330813    1.280359
     10          1           0        3.633788   -5.277881    0.159569
     11          1           0        1.719090   -4.909276   -1.405440
     12          1           0        0.894446   -2.577724   -1.842516
     13          6           0        3.010522    1.148245   -0.773372
     14          6           0        3.009204    2.334574   -0.012824
     15          6           0        4.097924    3.213945   -0.079598
     16          6           0        5.190346    2.918712   -0.906607
     17          6           0        5.190643    1.743400   -1.672508
     18          6           0        4.107008    0.860058   -1.613211
     19          1           0        4.092234   -0.040465   -2.232628
     20          1           0        6.035606    1.516037   -2.330072
     21          1           0        6.038967    3.608286   -0.959456
     22          1           0        4.089447    4.132391    0.516231
     23          1           0        2.160253    2.583283    0.630840
     24          6           0        0.604503    0.413270    0.769839
     25          6           0        0.983949    0.401606    2.291622
     26          6           0        1.123934   -1.034510    2.780286
     27          6           0       -0.107659   -1.588829    2.787583
     28          1           0       -0.363474   -2.633888    2.983405
     29          6           0       -1.083346   -0.541098    2.248874
     30          1           0       -2.153025   -0.709186    2.438004
     31          6           0       -0.439513    0.741283    2.830821
     32          1           0       -0.859497    1.676075    2.420574
     33          1           0       -0.479142    0.760431    3.931826
     34          6           0       -0.664013   -0.482927    0.727944
     35         15           0       -1.641258    0.094126   -0.740009
     36          6           0       -2.282025    1.755213   -0.331502
     37          6           0       -1.719774    2.875697   -0.972221
     38          6           0       -2.130886    4.165741   -0.608738
     39          6           0       -3.102494    4.338817    0.387064
     40          6           0       -3.674638    3.221868    1.017335
     41          6           0       -3.270472    1.930316    0.658455
     42          1           0       -3.727648    1.056964    1.135969
     43          1           0       -4.442327    3.358332    1.785996
     44          1           0       -3.424952    5.346813    0.667585
     45          1           0       -1.698059    5.035180   -1.113669
     46          1           0       -0.980669    2.717024   -1.766357
     47          6           0       -3.104361   -0.989382   -0.844837
     48          6           0       -3.183825   -2.189360   -0.110291
     49          6           0       -4.317709   -3.005478   -0.219033
     50          6           0       -5.374143   -2.632384   -1.061142
     51          6           0       -5.294394   -1.441959   -1.799320
     52          6           0       -4.165998   -0.620852   -1.697846
     53          1           0       -4.087637    0.290794   -2.296106
     54          1           0       -6.112167   -1.153687   -2.467304
     55          1           0       -6.258003   -3.272678   -1.146698
     56          1           0       -4.373016   -3.935395    0.356220
     57          1           0       -2.364776   -2.494758    0.547600
     58          1           0       -0.371183   -1.504944    0.416048
     59          1           0        2.072708   -1.532203    2.989961
     60          1           0        1.798431    1.093229    2.551148
     61          1           0        0.292202    1.453424    0.545145
 ---------------------------------------------------------------------

 SCF Done:  E(RPBE1PBE) =  -1879.63693578     A.U. after    2 cycles

 The electronic state is 1-A.
 Alpha  occ. eigenvalues --  -77.19248 -77.19248 -10.24436 -10.24299 -10.24106
 Alpha  occ. eigenvalues --  -10.24105 -10.24080 -10.23976 -10.23952 -10.23898
 Alpha  occ. eigenvalues --  -10.23861 -10.23832 -10.23772 -10.23763 -10.23717
 Alpha  occ. eigenvalues --  -10.23678 -10.23654 -10.23572 -10.23525 -10.23485
 Alpha  occ. eigenvalues --  -10.23133 -10.23126 -10.23070 -10.23061 -10.23060
 Alpha  occ. eigenvalues --  -10.23039 -10.22995 -10.22960 -10.22849 -10.22811
 Alpha  occ. eigenvalues --  -10.22480 -10.22456 -10.22263  -6.58933  -6.58930
 Alpha  occ. eigenvalues --   -4.72528  -4.72524  -4.72516  -4.72510  -4.72054
 Alpha  occ. eigenvalues --   -4.72051  -0.91449  -0.88397  -0.88240  -0.87591
 Alpha  occ. eigenvalues --   -0.87556  -0.80073  -0.78751  -0.77310  -0.77168
 Alpha  occ. eigenvalues --   -0.76977  -0.76753  -0.76478  -0.76430  -0.76298
 Alpha  occ. eigenvalues --   -0.74182  -0.72352  -0.66633  -0.65087  -0.62768
 Alpha  occ. eigenvalues --   -0.62607  -0.62502  -0.62151  -0.61552  -0.61448
 Alpha  occ. eigenvalues --   -0.60246  -0.59102  -0.56814  -0.56336  -0.53901
 Alpha  occ. eigenvalues --   -0.53314  -0.52839  -0.52675  -0.51647  -0.51010
 Alpha  occ. eigenvalues --   -0.48262  -0.47164  -0.47033  -0.46850  -0.46662
 Alpha  occ. eigenvalues --   -0.46419  -0.46218  -0.45947  -0.45054  -0.43935
 Alpha  occ. eigenvalues --   -0.43826  -0.43656  -0.43424  -0.43257  -0.42351
 Alpha  occ. eigenvalues --   -0.41540  -0.40906  -0.39775  -0.39111  -0.38941
 Alpha  occ. eigenvalues --   -0.38423  -0.38273  -0.38142  -0.37554  -0.36775
 Alpha  occ. eigenvalues --   -0.36353  -0.36208  -0.36049  -0.35868  -0.35614
 Alpha  occ. eigenvalues --   -0.35574  -0.34275  -0.33221  -0.33050  -0.32682
 Alpha  occ. eigenvalues --   -0.30263  -0.28786  -0.27949  -0.27410  -0.27248
 Alpha  occ. eigenvalues --   -0.27060  -0.26981  -0.26486  -0.26434  -0.25792
 Alpha  occ. eigenvalues --   -0.22123  -0.19012
 Alpha virt. eigenvalues --   -0.03206  -0.02804  -0.02085  -0.01948  -0.01658
 Alpha virt. eigenvalues --   -0.01414  -0.00821  -0.00495   0.00893   0.03969
 Alpha virt. eigenvalues --    0.04587   0.05315   0.05815   0.05904   0.06501

 Mulliken charges:
               1
     1  P    0.079731
     2  C    0.080308
     3  C   -0.187039
     4  C   -0.121441
     5  C   -0.107753
     6  C   -0.110151
     7  C   -0.214269
     8  H    0.145229
     9  H    0.119897
    10  H    0.120435
    11  H    0.121256
    12  H    0.143157
    13  C    0.154819
    14  C   -0.208455
    15  C   -0.151119
    16  C   -0.121485
    17  C   -0.111624
    18  C   -0.214894
    19  H    0.128459
    20  H    0.117373
    21  H    0.116103
    22  H    0.115720
    23  H    0.131267
    24  C   -0.311912
    25  C    0.130642
    26  C   -0.218182
    27  C   -0.224967
    28  H    0.117572
    29  C    0.053489
    30  H    0.126747
    31  C   -0.241850
    32  H    0.130903
    33  H    0.104822
    34  C   -0.219087
    35  P    0.074086
    36  C    0.011847
    37  C   -0.162734
    38  C   -0.124762
    39  C   -0.102192
    40  C   -0.116683
    41  C   -0.166356
    42  H    0.134322
    43  H    0.119699
    44  H    0.121502
    45  H    0.122326
    46  H    0.143705
    47  C    0.144952
    48  C   -0.194398
    49  C   -0.152740
    50  C   -0.118927
    51  C   -0.116363
    52  C   -0.202462
    53  H    0.125031
    54  H    0.116996
    55  H    0.116264
    56  H    0.114611
    57  H    0.130863
    58  H    0.135571
    59  H    0.119944
    60  H    0.118493
    61  H    0.133707
 Sum of Mulliken charges =  -0.00000

 Dipole moment (field-independent basis, Debye):
    X=             -0.0566    Y=              0.0606    Z=              1.8914  Tot=              1.8932
 Quadrupole moment (field-independent basis, Debye-Ang):
   XX=           -195.0199   YY=           -187.5481   ZZ=           -211.1841
   XY=             -1.8729   XZ=             -0.3356   YZ=              0.6707

 Summary of Natural Population Analysis:

                                       Natural Population
                Natural  -----------------------------------------------
    Atom  No    Charge         Core      Valence    Rydberg      Total
 -----------------------------------------------------------------------
      P    1    0.86480      9.99789     4.10631    0.03100    14.13520
      C    2   -0.34518      1.99905     4.31318    0.03296     6.34518
      C    3   -0.20289      1.99912     4.18428    0.01949     6.20289
      C    4   -0.21685      1.99921     4.19907    0.01857     6.21685
      C    5   -0.20619      1.99922     4.18873    0.01824     6.20619
      C    6   -0.21736      1.99921     4.20007    0.01809     6.21736
      C    7   -0.19763      1.99911     4.17874    0.01978     6.19763
      H    8    0.22549      0.00000     0.77234    0.00217     0.77451
      H    9    0.21787      0.00000     0.78078    0.00134     0.78213
      H   10    0.21833      0.00000     0.78051    0.00117     0.78167
      H   11    0.22009      0.00000     0.77867    0.00125     0.77991
      H   12    0.23274      0.00000     0.76583    0.00143     0.76726
      C   13   -0.33280      1.99908     4.30300    0.03073     6.33280
      C   14   -0.22562      1.99912     4.20739    0.01911     6.22562
      C   15   -0.20623      1.99921     4.18907    0.01794     6.20623
      C   16   -0.22784      1.99922     4.20996    0.01866     6.22784
      C   17   -0.20523      1.99921     4.18822    0.01780     6.20523
      C   18   -0.21302      1.99912     4.19492    0.01898     6.21302
      H   19    0.22319      0.00000     0.77518    0.00163     0.77681
      H   20    0.21757      0.00000     0.78118    0.00125     0.78243
      H   21    0.21705      0.00000     0.78179    0.00116     0.78295
      H   22    0.21646      0.00000     0.78228    0.00126     0.78354
      H   23    0.21340      0.00000     0.78477    0.00183     0.78660
      C   24   -0.51615      1.99929     4.48910    0.02775     6.51615
      C   25   -0.27751      1.99937     4.26053    0.01762     6.27751
      C   26   -0.19820      1.99912     4.17977    0.01931     6.19820
      C   27   -0.20171      1.99913     4.18377    0.01880     6.20171
      H   28    0.22289      0.00000     0.77564    0.00147     0.77711
      C   29   -0.27888      1.99937     4.26156    0.01795     6.27888
      H   30    0.23038      0.00000     0.76775    0.00188     0.76962
      C   31   -0.38514      1.99945     4.37195    0.01374     6.38514
      H   32    0.21415      0.00000     0.78434    0.00151     0.78585
      H   33    0.22247      0.00000     0.77611    0.00142     0.77753
      C   34   -0.51629      1.99931     4.48940    0.02758     6.51629
      P   35    0.86306      9.99790     4.10813    0.03091    14.13694
      C   36   -0.34969      1.99906     4.31744    0.03319     6.34969
      C   37   -0.20496      1.99912     4.18628    0.01955     6.20496
      C   38   -0.21732      1.99921     4.19951    0.01860     6.21732
      C   39   -0.20666      1.99922     4.18926    0.01817     6.20666
      C   40   -0.21543      1.99921     4.19814    0.01807     6.21543
      C   41   -0.19982      1.99911     4.18113    0.01958     6.19982
      H   42    0.22448      0.00000     0.77338    0.00214     0.77552
      H   43    0.21888      0.00000     0.77979    0.00134     0.78112
      H   44    0.21897      0.00000     0.77987    0.00116     0.78103
      H   45    0.22077      0.00000     0.77799    0.00124     0.77923
      H   46    0.23426      0.00000     0.76432    0.00143     0.76574
      C   47   -0.33380      1.99908     4.30380    0.03093     6.33380
      C   48   -0.22592      1.99912     4.20757    0.01923     6.22592
      C   49   -0.20682      1.99921     4.18963    0.01798     6.20682
      C   50   -0.22664      1.99922     4.20878    0.01864     6.22664
      C   51   -0.20527      1.99922     4.18828    0.01777     6.20527
      C   52   -0.21022      1.99912     4.19212    0.01897     6.21022
      H   53    0.22219      0.00000     0.77618    0.00162     0.77781
      H   54    0.21759      0.00000     0.78116    0.00125     0.78241
      H   55    0.21711      0.00000     0.78173    0.00116     0.78289
      H   56    0.21630      0.00000     0.78244    0.00126     0.78370
      H   57    0.21478      0.00000     0.78337    0.00185     0.78522
      H   58    0.24775      0.00000     0.74972    0.00253     0.75225
      H   59    0.22662      0.00000     0.77182    0.00155     0.77338
      H   60    0.22886      0.00000     0.76927    0.00187     0.77114
      H   61    0.24476      0.00000     0.75286    0.00238     0.75524
 =======================================================================
   * Total *   -0.00000     81.97061   161.28014    0.74925   244.00000

 Normal termination of Gaussian 09 at Sun Dec  5 03:11:53 2021.
