 Gaussian 09, Revision D.01,

 ----------------------------------------------------------------------
 # PBE1PBE gen pseudo=read int=(grid=ultrafine) empiricaldispersion=GD3
 BJ nmr=giao
 ----------------------------------------------------------------------

 ------------------
 RR_NorPhos_1 title
 ------------------
 Symbolic Z-matrix:
 Charge =  0 Multiplicity = 1

 SCF Done:  E(RPBE1PBE) =  -2927.83194040     A.U. after   20 cycles

      1  P    Isotropic =   241.9408   Anisotropy =    82.5226

      2  C    Isotropic =    48.7054   Anisotropy =   178.7206

      3  C    Isotropic =    36.1726   Anisotropy =   194.6231

      4  C    Isotropic =    51.2783   Anisotropy =   187.2241

      5  C    Isotropic =    47.6003   Anisotropy =   194.2628

      6  C    Isotropic =    52.9149   Anisotropy =   184.7686

      7  C    Isotropic =    43.6280   Anisotropy =   197.8486

      8  H    Isotropic =    24.0454   Anisotropy =    11.9755

      9  H    Isotropic =    23.9106   Anisotropy =     6.3298

     10  H    Isotropic =    23.6254   Anisotropy =     3.7920

     11  H    Isotropic =    23.6019   Anisotropy =     7.0781

     12  H    Isotropic =    22.1183   Anisotropy =    12.2186

     13  C    Isotropic =    46.3833   Anisotropy =   174.2094

     14  C    Isotropic =    49.7132   Anisotropy =   186.8875

     15  C    Isotropic =    53.3528   Anisotropy =   183.5832

     16  C    Isotropic =    48.4213   Anisotropy =   192.1201

     17  C    Isotropic =    50.9935   Anisotropy =   188.8216

     18  C    Isotropic =    39.0453   Anisotropy =   204.3959

     19  H    Isotropic =    22.8401   Anisotropy =    12.0768

     20  H    Isotropic =    23.6965   Anisotropy =     6.6083

     21  H    Isotropic =    23.6431   Anisotropy =     3.9509

     22  H    Isotropic =    23.7551   Anisotropy =     6.9365

     23  H    Isotropic =    23.5887   Anisotropy =    12.2694

     24  C    Isotropic =   134.5380   Anisotropy =    57.1442

     25  C    Isotropic =   139.4682   Anisotropy =    13.8967

     26  C    Isotropic =    43.5688   Anisotropy =   170.6651

     27  C    Isotropic =    37.3186   Anisotropy =   180.8194

     28  H    Isotropic =    25.0254   Anisotropy =     2.5349

     29  C    Isotropic =   141.1111   Anisotropy =    10.0081

     30  H    Isotropic =    28.6740   Anisotropy =     7.5983

     31  C    Isotropic =   131.3130   Anisotropy =    36.1899

     32  H    Isotropic =    30.5572   Anisotropy =     8.3778

     33  H    Isotropic =    29.8898   Anisotropy =    12.4364

     34  C    Isotropic =   133.3273   Anisotropy =    57.9743

     35  P    Isotropic =   243.6637   Anisotropy =    72.4106

     36  C    Isotropic =    46.0275   Anisotropy =   181.5422

     37  C    Isotropic =    36.3215   Anisotropy =   194.5797

     38  C    Isotropic =    50.7169   Anisotropy =   187.9621

     39  C    Isotropic =    47.6417   Anisotropy =   193.9410

     40  C    Isotropic =    52.1525   Anisotropy =   185.7287

     41  C    Isotropic =    45.1767   Anisotropy =   193.8853

     42  H    Isotropic =    24.0347   Anisotropy =    11.6019

     43  H    Isotropic =    23.8553   Anisotropy =     6.4740

     44  H    Isotropic =    23.5808   Anisotropy =     3.8247

     45  H    Isotropic =    23.4854   Anisotropy =     7.0504

     46  H    Isotropic =    21.8557   Anisotropy =    12.2603

     47  C    Isotropic =    45.7398   Anisotropy =   174.0450

     48  C    Isotropic =    49.4904   Anisotropy =   185.2096

     49  C    Isotropic =    53.3829   Anisotropy =   183.0333

     50  C    Isotropic =    48.4288   Anisotropy =   192.0964

     51  C    Isotropic =    50.8231   Anisotropy =   189.0992

     52  C    Isotropic =    38.7450   Anisotropy =   204.5844

     53  H    Isotropic =    22.6723   Anisotropy =    12.1513

     54  H    Isotropic =    23.6826   Anisotropy =     6.7300

     55  H    Isotropic =    23.6380   Anisotropy =     4.0055

     56  H    Isotropic =    23.7327   Anisotropy =     6.9089

     57  H    Isotropic =    23.5913   Anisotropy =    12.3565

     58  Pd   Isotropic =  -155.5042   Anisotropy =   266.6030

     59  Cl   Isotropic =   943.6365   Anisotropy =   538.9578

     60  Cl   Isotropic =   936.2244   Anisotropy =   541.0885

     61  H    Isotropic =    28.8127   Anisotropy =     4.6008

     62  H    Isotropic =    25.7181   Anisotropy =     5.6233

     63  H    Isotropic =    28.4378   Anisotropy =     8.4335

     64  H    Isotropic =    28.2781   Anisotropy =     4.6687

 Normal termination of Gaussian 09 at Tue Feb  8 09:52:11 2022.
 Gaussian 09:  ES64L-G09RevD.01 24-Apr-2013

 ----------------------------------------------------------------------
 # PBE1PBE gen pseudo=read int=(grid=ultrafine) empiricaldispersion=GD3
 BJ pop=nbo guess=read geom=check
 ----------------------------------------------------------------------

 ------------------
 RR_NorPhos_1 title
 ------------------
 Structure from the checkpoint file:  "RR_NorPhos_1_SPE.chk"
 Charge =  0 Multiplicity = 1

                         Standard orientation:
 ---------------------------------------------------------------------
 Center     Atomic      Atomic             Coordinates (Angstroms)
 Number     Number       Type             X           Y           Z
 ---------------------------------------------------------------------
      1         15           0       -1.602219    0.015585    0.007011
      2          6           0       -2.337008    1.683643    0.108097
      3          6           0       -1.749615    2.723668   -0.636550
      4          6           0       -2.239068    4.031428   -0.514766
      5          6           0       -3.319969    4.300035    0.336608
      6          6           0       -3.921214    3.259974    1.063586
      7          6           0       -3.434021    1.952434    0.950959
      8          1           0       -3.909999    1.136475    1.505129
      9          1           0       -4.776206    3.468280    1.715232
     10          1           0       -3.706464    5.320612    0.424824
     11          1           0       -1.784096    4.837499   -1.099083
     12          1           0       -0.928910    2.486912   -1.324040
     13          6           0       -2.999426   -1.154800    0.074026
     14          6           0       -2.984499   -2.267835    0.938169
     15          6           0       -4.061778   -3.163600    0.949819
     16          6           0       -5.156222   -2.958009    0.098691
     17          6           0       -5.169977   -1.856414   -0.769792
     18          6           0       -4.097818   -0.957432   -0.789250
     19          1           0       -4.093291   -0.116127   -1.487120
     20          1           0       -6.016455   -1.699992   -1.445849
     21          1           0       -5.995871   -3.660416    0.107346
     22          1           0       -4.042779   -4.024575    1.625827
     23          1           0       -2.133733   -2.446714    1.602305
     24          6           0       -0.606066   -0.253131    1.546927
     25          6           0       -0.988671   -0.109592    3.061175
     26          6           0       -1.147938    1.362717    3.418606
     27          6           0        0.076468    1.931267    3.377068
     28          1           0        0.318542    2.992908    3.478342
     29          6           0        1.066513    0.852004    2.935578
     30          1           0        2.133581    1.050180    3.109730
     31          6           0        0.437926   -0.381053    3.629936
     32          1           0        0.870618   -1.343453    3.305762
     33          1           0        0.475595   -0.300630    4.728235
     34          6           0        0.650997    0.651937    1.425686
     35         15           0        1.638455   -0.042114    0.016394
     36          6           0        2.299537   -1.651356    0.573152
     37          6           0        1.752905   -2.832054    0.035308
     38          6           0        2.179710   -4.078793    0.513666
     39          6           0        3.151453   -4.149113    1.521817
     40          6           0        3.708044   -2.972747    2.049582
     41          6           0        3.288157   -1.724003    1.575678
     42          1           0        3.733201   -0.805442    1.973111
     43          1           0        4.475873   -3.029653    2.828047
     44          1           0        3.486180   -5.123570    1.892113
     45          1           0        1.759017   -4.995608    0.088596
     46          1           0        1.013425   -2.754952   -0.770503
     47          6           0        3.087827    1.046340   -0.184203
     48          6           0        3.150512    2.308420    0.439532
     49          6           0        4.274110    3.125996    0.258802
     50          6           0        5.336897    2.692345   -0.545454
     51          6           0        5.273814    1.439449   -1.173666
     52          6           0        4.155781    0.616323   -0.999721
     53          1           0        4.090249   -0.346350   -1.513649
     54          1           0        6.096530    1.102850   -1.812332
     55          1           0        6.212688    3.333688   -0.687493
     56          1           0        4.316402    4.104499    0.748154
     57          1           0        2.326320    2.661150    1.066605
     58         46           0        0.020001   -0.209331   -1.598555
     59         17           0        1.775241   -0.629405   -3.155569
     60         17           0       -1.752634   -0.196531   -3.191142
     61          1           0        0.345781    1.637918    1.022907
     62          1           0       -2.103400    1.864981    3.581878
     63          1           0       -1.794783   -0.785517    3.381153
     64          1           0       -0.280076   -1.305163    1.416938
 ---------------------------------------------------------------------

 SCF Done:  E(RPBE1PBE) =  -2927.83194039     A.U. after    2 cycles

 The electronic state is 1-A.
 Alpha  occ. eigenvalues -- -101.60863-101.60863 -77.26462 -77.26416 -10.27180
 Alpha  occ. eigenvalues --  -10.27056 -10.26615 -10.26589 -10.26286 -10.26178
 Alpha  occ. eigenvalues --  -10.26120 -10.26103 -10.25744 -10.25567 -10.25431
 Alpha  occ. eigenvalues --  -10.25427 -10.25366 -10.25220 -10.25218 -10.25214
 Alpha  occ. eigenvalues --  -10.25123 -10.25044 -10.24946 -10.24795 -10.24732
 Alpha  occ. eigenvalues --  -10.24730 -10.24688 -10.24660 -10.24656 -10.24631
 Alpha  occ. eigenvalues --  -10.24569 -10.24531 -10.24452 -10.24290 -10.24276
 Alpha  occ. eigenvalues --   -9.43365  -9.43364  -7.16543  -7.16541  -7.16094
 Alpha  occ. eigenvalues --   -7.16089  -7.16061  -7.16060  -6.65714  -6.65676
 Alpha  occ. eigenvalues --   -4.79308  -4.79277  -4.79270  -4.79238  -4.79047
 Alpha  occ. eigenvalues --   -4.79006  -3.51593  -2.19273  -2.19165  -2.15982
 Alpha  occ. eigenvalues --   -0.93993  -0.90123  -0.90014  -0.89333  -0.89301
 Alpha  occ. eigenvalues --   -0.82996  -0.81128  -0.79110  -0.78770  -0.78645
 Alpha  occ. eigenvalues --   -0.78491  -0.78302  -0.78104  -0.78054  -0.76627
 Alpha  occ. eigenvalues --   -0.74739  -0.73588  -0.73026  -0.69709  -0.67825
 Alpha  occ. eigenvalues --   -0.64483  -0.64271  -0.64241  -0.63802  -0.63241
 Alpha  occ. eigenvalues --   -0.63154  -0.62348  -0.61543  -0.59139  -0.58684
 Alpha  occ. eigenvalues --   -0.56043  -0.55294  -0.54722  -0.54551  -0.53830
 Alpha  occ. eigenvalues --   -0.53121  -0.50594  -0.48865  -0.48746  -0.48618
 Alpha  occ. eigenvalues --   -0.48446  -0.48320  -0.47977  -0.47617  -0.46858
 Alpha  occ. eigenvalues --   -0.46347  -0.45321  -0.45259  -0.45135  -0.44705
 Alpha  occ. eigenvalues --   -0.44340  -0.43752  -0.43152  -0.42195  -0.41955
 Alpha  occ. eigenvalues --   -0.41269  -0.40590  -0.40300  -0.40031  -0.39582
 Alpha  occ. eigenvalues --   -0.39158  -0.38556  -0.38524  -0.37971  -0.37637
 Alpha  occ. eigenvalues --   -0.37288  -0.37220  -0.36830  -0.36804  -0.36413
 Alpha  occ. eigenvalues --   -0.35781  -0.35631  -0.35028  -0.34504  -0.32045
 Alpha  occ. eigenvalues --   -0.31180  -0.30951  -0.30515  -0.29766  -0.29100
 Alpha  occ. eigenvalues --   -0.28904  -0.28651  -0.28476  -0.28144  -0.28041
 Alpha  occ. eigenvalues --   -0.27771  -0.26860  -0.26168  -0.25293  -0.24597
 Alpha  occ. eigenvalues --   -0.23653  -0.23356  -0.23051
 Alpha virt. eigenvalues --   -0.07400  -0.04970  -0.04562  -0.03857  -0.03427
 Alpha virt. eigenvalues --   -0.03222  -0.02673  -0.02299  -0.01871  -0.01001
 Alpha virt. eigenvalues --    0.00461   0.00860   0.03186   0.03842   0.04104

 Mulliken charges:
               1
     1  P    0.188506
     2  C    0.062185
     3  C   -0.122783
     4  C   -0.131460
     5  C   -0.095290
     6  C   -0.114946
     7  C   -0.233643
     8  H    0.149160
     9  H    0.126320
    10  H    0.126564
    11  H    0.131269
    12  H    0.213352
    13  C    0.133132
    14  C   -0.176635
    15  C   -0.162696
    16  C   -0.095330
    17  C   -0.117743
    18  C   -0.191745
    19  H    0.159203
    20  H    0.128605
    21  H    0.125053
    22  H    0.122184
    23  H    0.135173
    24  C   -0.314413
    25  C    0.144010
    26  C   -0.213674
    27  C   -0.230160
    28  H    0.126320
    29  C    0.079651
    30  H    0.135712
    31  C   -0.246062
    32  H    0.135637
    33  H    0.115815
    34  C   -0.227983
    35  P    0.189730
    36  C   -0.036380
    37  C   -0.088278
    38  C   -0.136993
    39  C   -0.089084
    40  C   -0.123554
    41  C   -0.174403
    42  H    0.137272
    43  H    0.125711
    44  H    0.127343
    45  H    0.132529
    46  H    0.217508
    47  C    0.129944
    48  C   -0.164920
    49  C   -0.159908
    50  C   -0.096695
    51  C   -0.120003
    52  C   -0.193504
    53  H    0.159116
    54  H    0.128562
    55  H    0.124967
    56  H    0.121223
    57  H    0.133147
    58  Pd   0.066769
    59  Cl  -0.427138
    60  Cl  -0.425248
    61  H    0.163252
    62  H    0.127411
    63  H    0.128693
    64  H    0.159642
 Sum of Mulliken charges =   0.00000

 Dipole moment (field-independent basis, Debye):
    X=             -0.0301    Y=              1.3744    Z=             11.7590  Tot=             11.8390
 Quadrupole moment (field-independent basis, Debye-Ang):
   XX=           -220.4818   YY=           -220.0125   ZZ=           -282.6878
   XY=              2.6463   XZ=              0.2462   YZ=             -7.7740

 Summary of Natural Population Analysis:

                                       Natural Population
                Natural  -----------------------------------------------
    Atom  No    Charge         Core      Valence    Rydberg      Total
 -----------------------------------------------------------------------
      P    1    1.23929      9.99571     3.70995    0.05504    13.76071
      C    2   -0.37829      1.99901     4.34360    0.03568     6.37829
      C    3   -0.17605      1.99910     4.15872    0.01823     6.17605
      C    4   -0.20955      1.99921     4.19217    0.01817     6.20955
      C    5   -0.19276      1.99922     4.17571    0.01783     6.19276
      C    6   -0.21571      1.99921     4.19855    0.01795     6.21571
      C    7   -0.19426      1.99910     4.17458    0.02058     6.19426
      H    8    0.22680      0.00000     0.77097    0.00223     0.77320
      H    9    0.22250      0.00000     0.77626    0.00124     0.77750
      H   10    0.22210      0.00000     0.77675    0.00114     0.77790
      H   11    0.22666      0.00000     0.77213    0.00122     0.77334
      H   12    0.24849      0.00000     0.75010    0.00141     0.75151
      C   13   -0.37643      1.99902     4.34163    0.03578     6.37643
      C   14   -0.20026      1.99911     4.18267    0.01848     6.20026
      C   15   -0.21480      1.99921     4.19781    0.01778     6.21480
      C   16   -0.19468      1.99922     4.17756    0.01790     6.19468
      C   17   -0.20613      1.99921     4.18927    0.01765     6.20613
      C   18   -0.16901      1.99912     4.15088    0.01900     6.16901
      H   19    0.25153      0.00000     0.74681    0.00166     0.74847
      H   20    0.22568      0.00000     0.77311    0.00121     0.77432
      H   21    0.22159      0.00000     0.77726    0.00114     0.77841
      H   22    0.22140      0.00000     0.77738    0.00122     0.77860
      H   23    0.21453      0.00000     0.78373    0.00174     0.78547
      C   24   -0.54152      1.99928     4.50970    0.03254     6.54152
      C   25   -0.27439      1.99937     4.25618    0.01884     6.27439
      C   26   -0.19539      1.99912     4.17715    0.01912     6.19539
      C   27   -0.19793      1.99913     4.18007    0.01873     6.19793
      H   28    0.22778      0.00000     0.77087    0.00135     0.77222
      C   29   -0.27558      1.99937     4.25724    0.01897     6.27558
      H   30    0.23603      0.00000     0.76202    0.00196     0.76397
      C   31   -0.38430      1.99945     4.37049    0.01436     6.38430
      H   32    0.21636      0.00000     0.78206    0.00157     0.78364
      H   33    0.22765      0.00000     0.77095    0.00140     0.77235
      C   34   -0.53912      1.99929     4.50761    0.03221     6.53912
      P   35    1.23459      9.99572     3.71468    0.05500    13.76541
      C   36   -0.38339      1.99902     4.34808    0.03629     6.38339
      C   37   -0.17972      1.99910     4.16227    0.01835     6.17972
      C   38   -0.20989      1.99921     4.19245    0.01823     6.20989
      C   39   -0.19443      1.99922     4.17732    0.01788     6.19443
      C   40   -0.21371      1.99921     4.19679    0.01770     6.21371
      C   41   -0.19729      1.99911     4.17852    0.01966     6.19729
      H   42    0.22580      0.00000     0.77225    0.00195     0.77420
      H   43    0.22333      0.00000     0.77542    0.00125     0.77667
      H   44    0.22259      0.00000     0.77626    0.00114     0.77741
      H   45    0.22741      0.00000     0.77138    0.00121     0.77259
      H   46    0.25220      0.00000     0.74640    0.00140     0.74780
      C   47   -0.37733      1.99902     4.34239    0.03591     6.37733
      C   48   -0.20150      1.99911     4.18376    0.01862     6.20150
      C   49   -0.21534      1.99921     4.19831    0.01781     6.21534
      C   50   -0.19466      1.99922     4.17754    0.01790     6.19466
      C   51   -0.20552      1.99921     4.18871    0.01760     6.20552
      C   52   -0.16850      1.99912     4.15042    0.01896     6.16850
      H   53    0.25259      0.00000     0.74574    0.00167     0.74741
      H   54    0.22574      0.00000     0.77305    0.00121     0.77426
      H   55    0.22153      0.00000     0.77732    0.00115     0.77847
      H   56    0.22117      0.00000     0.77760    0.00123     0.77883
      H   57    0.21571      0.00000     0.78252    0.00177     0.78429
     Pd   58   -0.18096     35.98872    10.16904    0.02320    46.18096
     Cl   59   -0.43525      9.99963     7.42711    0.00851    17.43525
     Cl   60   -0.43212      9.99963     7.42394    0.00855    17.43212
      H   61    0.25600      0.00000     0.74137    0.00263     0.74400
      H   62    0.23109      0.00000     0.76746    0.00145     0.76891
      H   63    0.23491      0.00000     0.76320    0.00190     0.76509
      H   64    0.25272      0.00000     0.74464    0.00264     0.74728
 =======================================================================
   * Total *    0.00000    137.95398   185.18791    0.85812   324.00000

 Normal termination of Gaussian 09 at Tue Feb  8 09:54:12 2022.
