 Gaussian 09, Revision E.01,

 ----------------------------------------------------------------------
 # PBE1PBE/def2TZVP int=(grid=ultrafine) empiricaldispersion=GD3BJ nmr=
 giao
 ----------------------------------------------------------------------

 ------------------
 RR_NorPhos_2 title
 ------------------
 Symbolic Z-matrix:
 Charge =  0 Multiplicity = 1

 SCF Done:  E(RPBE1PBE) =  -1879.63287879     A.U. after   14 cycles

      1  P    Isotropic =   312.7918   Anisotropy =    27.8057

      2  C    Isotropic =    43.6956   Anisotropy =   202.4973

      3  C    Isotropic =    42.1840   Anisotropy =   181.6811

      4  C    Isotropic =    52.4695   Anisotropy =   184.2597

      5  C    Isotropic =    50.8004   Anisotropy =   188.6675

      6  C    Isotropic =    52.4842   Anisotropy =   184.3836

      7  C    Isotropic =    44.4466   Anisotropy =   196.6117

      8  H    Isotropic =    23.2181   Anisotropy =    11.4132

      9  H    Isotropic =    23.9314   Anisotropy =     6.3721

     10  H    Isotropic =    23.8525   Anisotropy =     4.1041

     11  H    Isotropic =    23.8694   Anisotropy =     5.9075

     12  H    Isotropic =    23.2798   Anisotropy =     8.9680

     13  C    Isotropic =    39.8806   Anisotropy =   203.4828

     14  C    Isotropic =    40.3783   Anisotropy =   183.0279

     15  C    Isotropic =    52.0258   Anisotropy =   184.3621

     16  C    Isotropic =    50.6055   Anisotropy =   189.7468

     17  C    Isotropic =    51.5305   Anisotropy =   185.8941

     18  C    Isotropic =    42.6161   Anisotropy =   179.9936

     19  H    Isotropic =    23.1218   Anisotropy =     9.5312

     20  H    Isotropic =    23.7000   Anisotropy =     5.5252

     21  H    Isotropic =    23.7025   Anisotropy =     4.3499

     22  H    Isotropic =    23.6812   Anisotropy =     6.5833

     23  H    Isotropic =    22.5854   Anisotropy =    10.8739

     24  C    Isotropic =   137.6233   Anisotropy =    23.0686

     25  C    Isotropic =   135.1177   Anisotropy =    18.5028

     26  C    Isotropic =    45.3797   Anisotropy =   167.8690

     27  C    Isotropic =    38.8317   Anisotropy =   178.0415

     28  H    Isotropic =    25.1906   Anisotropy =     1.5466

     29  C    Isotropic =   142.3241   Anisotropy =    11.8913

     30  H    Isotropic =    28.5533   Anisotropy =     7.3923

     31  C    Isotropic =   132.1590   Anisotropy =    38.1513

     32  H    Isotropic =    30.9160   Anisotropy =     9.8214

     33  H    Isotropic =    30.1444   Anisotropy =    11.5359

     34  C    Isotropic =   139.8464   Anisotropy =    37.5131

     35  P    Isotropic =   292.8606   Anisotropy =    34.7141

     36  C    Isotropic =    40.9004   Anisotropy =   205.8239

     37  C    Isotropic =    40.3844   Anisotropy =   185.1773

     38  C    Isotropic =    52.3115   Anisotropy =   185.0869

     39  C    Isotropic =    50.0153   Anisotropy =   190.4864

     40  C    Isotropic =    51.3011   Anisotropy =   186.1679

     41  C    Isotropic =    40.8087   Anisotropy =   190.9979

     42  H    Isotropic =    23.7160   Anisotropy =    10.8709

     43  H    Isotropic =    23.9806   Anisotropy =     6.2688

     44  H    Isotropic =    23.8677   Anisotropy =     3.9883

     45  H    Isotropic =    23.9048   Anisotropy =     5.9499

     46  H    Isotropic =    23.1165   Anisotropy =     8.4273

     47  C    Isotropic =    33.7447   Anisotropy =   203.6369

     48  C    Isotropic =    51.1702   Anisotropy =   179.7696

     49  C    Isotropic =    52.1688   Anisotropy =   183.7064

     50  C    Isotropic =    55.4562   Anisotropy =   180.0769

     51  C    Isotropic =    51.8337   Anisotropy =   185.7452

     52  C    Isotropic =    48.3732   Anisotropy =   186.4089

     53  H    Isotropic =    23.9919   Anisotropy =    12.1206

     54  H    Isotropic =    23.9696   Anisotropy =     5.6793

     55  H    Isotropic =    24.0590   Anisotropy =     3.9399

     56  H    Isotropic =    23.8435   Anisotropy =     6.6505

     57  H    Isotropic =    23.6510   Anisotropy =    12.1169

     58  H    Isotropic =    29.3946   Anisotropy =     7.3835

     59  H    Isotropic =    25.6077   Anisotropy =     4.9352

     60  H    Isotropic =    28.0677   Anisotropy =     8.9459

     61  H    Isotropic =    29.6193   Anisotropy =     8.1628

 Normal termination of Gaussian 09 at Sun Dec  5 03:09:00 2021.
 Gaussian 09:  ES64L-G09RevE.01 30-Nov-2015

 ----------------------------------------------------------------------
 # PBE1PBE/def2TZVP int=(grid=ultrafine) empiricaldispersion=GD3BJ pop=
 nbo guess=read geom=check
 ----------------------------------------------------------------------

 ------------------
 RR_NorPhos_2 title
 ------------------
 Structure from the checkpoint file:  "RR_NorPhos_2_SPE_NoPd.chk"
 Charge =  0 Multiplicity = 1

                         Standard orientation:
 ---------------------------------------------------------------------
 Center     Atomic      Atomic             Coordinates (Angstroms)
 Number     Number       Type             X           Y           Z
 ---------------------------------------------------------------------
      1         15           0        1.610696   -0.047929   -0.767597
      2          6           0        2.317943   -1.728127   -0.602298
      3          6           0        1.635767   -2.783955   -1.238487
      4          6           0        2.074817   -4.104011   -1.071039
      5          6           0        3.203394   -4.374470   -0.285021
      6          6           0        3.902409   -3.321865    0.325916
      7          6           0        3.464527   -2.001199    0.168469
      8          1           0        4.027251   -1.183376    0.628505
      9          1           0        4.798297   -3.529313    0.920360
     10          1           0        3.551491   -5.405146   -0.161632
     11          1           0        1.543190   -4.919191   -1.572122
     12          1           0        0.781703   -2.551789   -1.885858
     13          6           0        2.976339    1.172832   -0.781672
     14          6           0        3.711850    1.449712    0.391537
     15          6           0        4.739372    2.401134    0.372126
     16          6           0        5.036576    3.089085   -0.813217
     17          6           0        4.304625    2.821356   -1.978113
     18          6           0        3.276992    1.868557   -1.969102
     19          1           0        2.714462    1.638834   -2.880370
     20          1           0        4.532521    3.355181   -2.906256
     21          1           0        5.838001    3.835010   -0.826144
     22          1           0        5.304605    2.607768    1.286833
     23          1           0        3.486103    0.926601    1.324891
     24          6           0        0.645166    0.306452    0.786899
     25          6           0        1.018818    0.191278    2.308656
     26          6           0        1.143505   -1.275457    2.699015
     27          6           0       -0.095828   -1.812060    2.674687
     28          1           0       -0.364391   -2.865211    2.795776
     29          6           0       -1.060133   -0.716814    2.215591
     30          1           0       -2.131208   -0.884883    2.396704
     31          6           0       -0.397058    0.514931    2.874223
     32          1           0       -0.802471    1.480116    2.524883
     33          1           0       -0.429007    0.466753    3.974669
     34          6           0       -0.646960   -0.555511    0.703008
     35         15           0       -1.629713    0.141095   -0.705455
     36          6           0       -2.196890    1.804326   -0.211433
     37          6           0       -1.611264    2.929111   -0.822566
     38          6           0       -1.968380    4.217155   -0.400269
     39          6           0       -2.909202    4.384091    0.625652
     40          6           0       -3.504162    3.263581    1.227754
     41          6           0       -3.154153    1.974007    0.809788
     42          1           0       -3.629275    1.098878    1.265905
     43          1           0       -4.247046    3.395932    2.021079
     44          1           0       -3.189037    5.390744    0.952740
     45          1           0       -1.516675    5.090521   -0.881184
     46          1           0       -0.895318    2.776238   -1.638514
     47          6           0       -3.135751   -0.878440   -0.834541
     48          6           0       -3.211730   -2.148449   -0.228753
     49          6           0       -4.376044   -2.917745   -0.354088
     50          6           0       -5.466888   -2.427858   -1.085247
     51          6           0       -5.391350   -1.167007   -1.695759
     52          6           0       -4.232182   -0.392458   -1.577017
     53          1           0       -4.161135    0.577587   -2.075717
     54          1           0       -6.236780   -0.786563   -2.277588
     55          1           0       -6.374655   -3.031645   -1.184399
     56          1           0       -4.428188   -3.902853    0.120742
     57          1           0       -2.365883   -2.545220    0.340639
     58          1           0       -0.380512   -1.558338    0.314430
     59          1           0        2.086794   -1.801587    2.860261
     60          1           0        1.828801    0.863662    2.623573
     61          1           0        0.378848    1.370707    0.625369
 ---------------------------------------------------------------------

 SCF Done:  E(RPBE1PBE) =  -1879.63287879     A.U. after    2 cycles

 The electronic state is 1-A.
 Alpha  occ. eigenvalues --  -77.18979 -77.18958 -10.24196 -10.24063 -10.24016
 Alpha  occ. eigenvalues --  -10.23971 -10.23930 -10.23875 -10.23850 -10.23810
 Alpha  occ. eigenvalues --  -10.23739 -10.23681 -10.23676 -10.23674 -10.23627
 Alpha  occ. eigenvalues --  -10.23624 -10.23566 -10.23541 -10.23539 -10.23529
 Alpha  occ. eigenvalues --  -10.23519 -10.23433 -10.23379 -10.23337 -10.23320
 Alpha  occ. eigenvalues --  -10.22946 -10.22890 -10.22876 -10.22787 -10.22645
 Alpha  occ. eigenvalues --  -10.22369 -10.22280 -10.22183  -6.58671  -6.58614
 Alpha  occ. eigenvalues --   -4.72266  -4.72250  -4.72209  -4.72191  -4.71790
 Alpha  occ. eigenvalues --   -4.71729  -0.91278  -0.88258  -0.88240  -0.87808
 Alpha  occ. eigenvalues --   -0.87411  -0.79853  -0.78639  -0.77184  -0.77163
 Alpha  occ. eigenvalues --   -0.76993  -0.76710  -0.76532  -0.76425  -0.76244
 Alpha  occ. eigenvalues --   -0.74057  -0.72239  -0.66532  -0.64967  -0.62805
 Alpha  occ. eigenvalues --   -0.62605  -0.62215  -0.62172  -0.61624  -0.61376
 Alpha  occ. eigenvalues --   -0.60193  -0.58933  -0.56909  -0.56186  -0.53797
 Alpha  occ. eigenvalues --   -0.53305  -0.52884  -0.52583  -0.51606  -0.50852
 Alpha  occ. eigenvalues --   -0.48188  -0.47058  -0.46988  -0.46912  -0.46653
 Alpha  occ. eigenvalues --   -0.46360  -0.46196  -0.45862  -0.45321  -0.43833
 Alpha  occ. eigenvalues --   -0.43709  -0.43631  -0.43353  -0.43150  -0.42465
 Alpha  occ. eigenvalues --   -0.41500  -0.40860  -0.39625  -0.39204  -0.38836
 Alpha  occ. eigenvalues --   -0.38447  -0.38271  -0.38151  -0.37421  -0.36787
 Alpha  occ. eigenvalues --   -0.36309  -0.36148  -0.35903  -0.35800  -0.35619
 Alpha  occ. eigenvalues --   -0.35439  -0.34217  -0.33286  -0.32932  -0.32418
 Alpha  occ. eigenvalues --   -0.30173  -0.28310  -0.27263  -0.27227  -0.27053
 Alpha  occ. eigenvalues --   -0.26868  -0.26780  -0.26682  -0.26299  -0.25947
 Alpha  occ. eigenvalues --   -0.22399  -0.19093
 Alpha virt. eigenvalues --   -0.03372  -0.02928  -0.01958  -0.01840  -0.01422
 Alpha virt. eigenvalues --   -0.01376  -0.01287  -0.00474   0.00898   0.03959
 Alpha virt. eigenvalues --    0.04598   0.05238   0.05799   0.06176   0.06825

 Mulliken charges:
               1
     1  P    0.024626
     2  C    0.155870
     3  C   -0.190233
     4  C   -0.122150
     5  C   -0.112194
     6  C   -0.128000
     7  C   -0.210378
     8  H    0.115033
     9  H    0.118163
    10  H    0.119157
    11  H    0.120502
    12  H    0.146103
    13  C    0.138925
    14  C   -0.185534
    15  C   -0.148736
    16  C   -0.110648
    17  C   -0.111337
    18  C   -0.211292
    19  H    0.129604
    20  H    0.119646
    21  H    0.120390
    22  H    0.117404
    23  H    0.142287
    24  C   -0.277786
    25  C    0.107442
    26  C   -0.205715
    27  C   -0.230185
    28  H    0.117041
    29  C    0.060167
    30  H    0.128816
    31  C   -0.246293
    32  H    0.133775
    33  H    0.102534
    34  C   -0.219919
    35  P    0.079508
    36  C    0.016754
    37  C   -0.159937
    38  C   -0.121036
    39  C   -0.104269
    40  C   -0.112763
    41  C   -0.170310
    42  H    0.134053
    43  H    0.119261
    44  H    0.120747
    45  H    0.120341
    46  H    0.138182
    47  C    0.157967
    48  C   -0.208926
    49  C   -0.145428
    50  C   -0.122390
    51  C   -0.115627
    52  C   -0.209413
    53  H    0.126750
    54  H    0.116175
    55  H    0.115286
    56  H    0.114101
    57  H    0.129164
    58  H    0.120850
    59  H    0.119720
    60  H    0.101352
    61  H    0.132801
 Sum of Mulliken charges =  -0.00000

 Dipole moment (field-independent basis, Debye):
    X=              0.5932    Y=              0.6676    Z=              1.7846  Tot=              1.9956
 Quadrupole moment (field-independent basis, Debye-Ang):
   XX=           -194.9044   YY=           -188.1079   ZZ=           -208.6821
   XY=              2.4321   XZ=              1.9046   YZ=             -2.8471

 Summary of Natural Population Analysis:

                                       Natural Population
                Natural  -----------------------------------------------
    Atom  No    Charge         Core      Valence    Rydberg      Total
 -----------------------------------------------------------------------
      P    1    0.82949      9.99798     4.14120    0.03133    14.17051
      C    2   -0.33839      1.99904     4.30666    0.03269     6.33839
      C    3   -0.20392      1.99913     4.18549    0.01931     6.20392
      C    4   -0.21540      1.99921     4.19762    0.01857     6.21540
      C    5   -0.20865      1.99922     4.19112    0.01831     6.20865
      C    6   -0.21488      1.99921     4.19770    0.01797     6.21488
      C    7   -0.20158      1.99910     4.18314    0.01933     6.20158
      H    8    0.21942      0.00000     0.77850    0.00208     0.78058
      H    9    0.21665      0.00000     0.78201    0.00135     0.78335
      H   10    0.21798      0.00000     0.78085    0.00117     0.78202
      H   11    0.21958      0.00000     0.77917    0.00125     0.78042
      H   12    0.23244      0.00000     0.76615    0.00142     0.76756
      C   13   -0.33894      1.99906     4.30825    0.03162     6.33894
      C   14   -0.21056      1.99912     4.19237    0.01907     6.21056
      C   15   -0.21481      1.99921     4.19751    0.01808     6.21481
      C   16   -0.20747      1.99922     4.19008    0.01817     6.20747
      C   17   -0.21379      1.99921     4.19621    0.01837     6.21379
      C   18   -0.19157      1.99913     4.17312    0.01931     6.19157
      H   19    0.22919      0.00000     0.76929    0.00152     0.77081
      H   20    0.21893      0.00000     0.77984    0.00124     0.78107
      H   21    0.21869      0.00000     0.78014    0.00117     0.78131
      H   22    0.21679      0.00000     0.78185    0.00136     0.78321
      H   23    0.21347      0.00000     0.78421    0.00232     0.78653
      C   24   -0.50627      1.99929     4.47965    0.02734     6.50627
      C   25   -0.27530      1.99937     4.25871    0.01722     6.27530
      C   26   -0.20253      1.99912     4.18436    0.01906     6.20253
      C   27   -0.19917      1.99914     4.18120    0.01884     6.19917
      H   28    0.22267      0.00000     0.77585    0.00147     0.77733
      C   29   -0.28035      1.99937     4.26305    0.01794     6.28035
      H   30    0.23083      0.00000     0.76727    0.00190     0.76917
      C   31   -0.38424      1.99945     4.37100    0.01380     6.38424
      H   32    0.21590      0.00000     0.78260    0.00150     0.78410
      H   33    0.22145      0.00000     0.77714    0.00141     0.77855
      C   34   -0.51928      1.99931     4.49204    0.02792     6.51928
      P   35    0.86590      9.99789     4.10538    0.03083    14.13410
      C   36   -0.35091      1.99906     4.31868    0.03317     6.35091
      C   37   -0.20239      1.99912     4.18368    0.01958     6.20239
      C   38   -0.21686      1.99921     4.19906    0.01859     6.21686
      C   39   -0.20631      1.99922     4.18892    0.01817     6.20631
      C   40   -0.21613      1.99921     4.19884    0.01808     6.21613
      C   41   -0.19989      1.99911     4.18120    0.01958     6.19989
      H   42    0.22449      0.00000     0.77335    0.00216     0.77551
      H   43    0.21857      0.00000     0.78008    0.00134     0.78143
      H   44    0.21866      0.00000     0.78018    0.00116     0.78134
      H   45    0.22025      0.00000     0.77850    0.00125     0.77975
      H   46    0.23300      0.00000     0.76553    0.00147     0.76700
      C   47   -0.33300      1.99908     4.30297    0.03095     6.33300
      C   48   -0.22708      1.99912     4.20868    0.01928     6.22708
      C   49   -0.20651      1.99921     4.18933    0.01796     6.20651
      C   50   -0.22862      1.99922     4.21071    0.01869     6.22862
      C   51   -0.20520      1.99921     4.18819    0.01779     6.20520
      C   52   -0.21252      1.99912     4.19439    0.01901     6.21252
      H   53    0.22214      0.00000     0.77623    0.00163     0.77786
      H   54    0.21710      0.00000     0.78165    0.00125     0.78290
      H   55    0.21666      0.00000     0.78218    0.00116     0.78334
      H   56    0.21596      0.00000     0.78278    0.00126     0.78404
      H   57    0.21434      0.00000     0.78381    0.00185     0.78566
      H   58    0.24764      0.00000     0.74984    0.00252     0.75236
      H   59    0.22591      0.00000     0.77252    0.00157     0.77409
      H   60    0.22285      0.00000     0.77523    0.00191     0.77715
      H   61    0.24554      0.00000     0.75234    0.00212     0.75446
 =======================================================================
   * Total *    0.00000     81.97067   161.27961    0.74972   244.00000

 Normal termination of Gaussian 09 at Sun Dec  5 03:13:49 2021.
