 Gaussian 09, Revision E.01,

 ----------------------------------------------------------------------
 # PBE1PBE gen pseudo=read int=(grid=ultrafine) empiricaldispersion=GD3
 BJ nmr=giao
 ----------------------------------------------------------------------

 --------------
 M003_1_5 title
 --------------
 Symbolic Z-matrix:
 Charge =  0 Multiplicity = 1

 SCF Done:  E(RPBE1PBE) =  -6669.05017370     A.U. after   31 cycles

      1  Fe   Isotropic = -6397.2373   Anisotropy =  8063.5113

      2  P    Isotropic =   226.1883   Anisotropy =   107.8236

      3  P    Isotropic =   235.2270   Anisotropy =   150.8636

      4  C    Isotropic =   108.2548   Anisotropy =    87.3773

      5  C    Isotropic =   102.6840   Anisotropy =    76.3360

      6  C    Isotropic =   100.0101   Anisotropy =   107.6013

      7  C    Isotropic =   108.4811   Anisotropy =    94.3880

      8  C    Isotropic =    77.7296   Anisotropy =    95.2701

      9  C    Isotropic =   110.3592   Anisotropy =    80.5499

     10  C    Isotropic =    78.5305   Anisotropy =    96.2610

     11  C    Isotropic =   108.7448   Anisotropy =    94.8436

     12  C    Isotropic =   102.1054   Anisotropy =   104.8756

     13  C    Isotropic =   107.2642   Anisotropy =    77.6413

     14  C    Isotropic =    43.8600   Anisotropy =   173.0515

     15  C    Isotropic =    43.1372   Anisotropy =   203.9429

     16  C    Isotropic =    48.1736   Anisotropy =   159.7055

     17  C    Isotropic =    53.5327   Anisotropy =   191.7055

     18  C    Isotropic =    49.0272   Anisotropy =   157.9125

     19  C    Isotropic =    39.1499   Anisotropy =   205.0297

     20  C    Isotropic =    42.5871   Anisotropy =   184.5975

     21  C    Isotropic =    41.3320   Anisotropy =   203.2904

     22  C    Isotropic =    46.6130   Anisotropy =   162.4835

     23  C    Isotropic =    52.4112   Anisotropy =   194.1295

     24  C    Isotropic =    45.5403   Anisotropy =   161.1647

     25  C    Isotropic =    34.3948   Anisotropy =   196.2779

     26  C    Isotropic =    42.4501   Anisotropy =   180.9942

     27  C    Isotropic =    36.3021   Anisotropy =   206.9520

     28  C    Isotropic =    43.4436   Anisotropy =   167.6769

     29  C    Isotropic =    50.9307   Anisotropy =   196.1017

     30  C    Isotropic =    47.0222   Anisotropy =   162.1221

     31  C    Isotropic =    41.0255   Anisotropy =   202.4432

     32  C    Isotropic =    41.3238   Anisotropy =   190.9366

     33  C    Isotropic =    44.2176   Anisotropy =   202.8114

     34  C    Isotropic =    46.5734   Anisotropy =   162.5994

     35  C    Isotropic =    53.6579   Anisotropy =   191.5144

     36  C    Isotropic =    46.4281   Anisotropy =   162.2368

     37  C    Isotropic =    35.6795   Anisotropy =   199.9313

     38  H    Isotropic =    26.9669   Anisotropy =     7.0571

     39  H    Isotropic =    27.9769   Anisotropy =     3.3518

     40  H    Isotropic =    23.6394   Anisotropy =    18.4017

     41  H    Isotropic =    23.0945   Anisotropy =     9.7810

     42  H    Isotropic =    22.5178   Anisotropy =    14.9307

     43  H    Isotropic =    22.8560   Anisotropy =    12.8516

     44  H    Isotropic =    22.9401   Anisotropy =    10.0633

     45  H    Isotropic =    21.7000   Anisotropy =    11.1092

     46  H    Isotropic =    20.8076   Anisotropy =    17.3271

     47  H    Isotropic =    22.9029   Anisotropy =     8.9053

     48  H    Isotropic =    23.2688   Anisotropy =    15.1586

     49  H    Isotropic =    23.5922   Anisotropy =    15.4317

     50  H    Isotropic =    23.0317   Anisotropy =     9.3356

     51  H    Isotropic =    21.6775   Anisotropy =    15.4122

     52  Cl   Isotropic =   786.5808   Anisotropy =   390.1815

     53  Cl   Isotropic =   823.6387   Anisotropy =   540.8923

     54  Pd   Isotropic =  -150.3080   Anisotropy =   242.8912

     55  C    Isotropic =   116.2926   Anisotropy =    42.9690

     56  H    Isotropic =    30.4550   Anisotropy =    17.3825

     57  H    Isotropic =    27.3947   Anisotropy =     4.7907

     58  C    Isotropic =   119.1959   Anisotropy =    42.3067

     59  H    Isotropic =    28.1780   Anisotropy =    13.0312

     60  N    Isotropic =   191.3126   Anisotropy =    56.4383

     61  C    Isotropic =   137.3600   Anisotropy =    58.5972

     62  C    Isotropic =   138.4916   Anisotropy =    63.4559

     63  H    Isotropic =    29.6209   Anisotropy =    10.0773

     64  H    Isotropic =    29.8565   Anisotropy =     7.5124

     65  H    Isotropic =    31.1282   Anisotropy =     8.2615

     66  H    Isotropic =    29.6391   Anisotropy =    12.7406

     67  H    Isotropic =    30.1674   Anisotropy =     8.1663

     68  H    Isotropic =    29.4639   Anisotropy =     7.3340

     69  C    Isotropic =    52.0669   Anisotropy =   187.8724

     70  C    Isotropic =    50.3387   Anisotropy =   189.4472

     71  C    Isotropic =    52.8251   Anisotropy =   190.9085

     72  C    Isotropic =    30.8823   Anisotropy =   205.2834

     73  C    Isotropic =    51.4031   Anisotropy =   172.8456

     74  C    Isotropic =    51.3201   Anisotropy =   189.2608

     75  H    Isotropic =    24.0071   Anisotropy =     4.9114

     76  H    Isotropic =    23.8282   Anisotropy =     4.7724

     77  H    Isotropic =    23.6534   Anisotropy =    10.1082

     78  H    Isotropic =    26.8889   Anisotropy =     7.1943

     79  H    Isotropic =    24.2990   Anisotropy =     8.5834

     80  N    Isotropic =   192.1696   Anisotropy =    60.3760

     81  H    Isotropic =    29.2646   Anisotropy =    15.3245

     82  C    Isotropic =   139.6121   Anisotropy =    61.7771

     83  C    Isotropic =   141.5628   Anisotropy =    52.9551

     84  H    Isotropic =    30.3259   Anisotropy =     7.6669

     85  H    Isotropic =    29.5585   Anisotropy =     6.9604

     86  H    Isotropic =    29.5362   Anisotropy =    12.5048

     87  H    Isotropic =    29.7488   Anisotropy =     5.8119

     88  H    Isotropic =    29.4188   Anisotropy =    10.8155

     89  H    Isotropic =    29.5663   Anisotropy =     7.5611

     90  C    Isotropic =    51.6566   Anisotropy =   187.2540

     91  C    Isotropic =    50.3961   Anisotropy =   190.5225

     92  C    Isotropic =    49.6504   Anisotropy =   176.6005

     93  C    Isotropic =    30.4787   Anisotropy =   203.7957

     94  C    Isotropic =    52.4858   Anisotropy =   191.3290

     95  C    Isotropic =    50.2628   Anisotropy =   189.0984

     96  H    Isotropic =    23.7278   Anisotropy =     3.9803

     97  H    Isotropic =    23.8290   Anisotropy =     6.0800

     98  H    Isotropic =    23.4759   Anisotropy =    10.3413

     99  C    Isotropic =    49.0339   Anisotropy =    14.3573

    100  F    Isotropic =   221.0436   Anisotropy =   148.9678

    101  F    Isotropic =   241.7295   Anisotropy =   143.7014

    102  F    Isotropic =   248.2469   Anisotropy =   125.0408

    103  C    Isotropic =    48.5853   Anisotropy =    15.3167

    104  F    Isotropic =   242.5810   Anisotropy =   141.5874

    105  F    Isotropic =   220.9673   Anisotropy =   148.2883

    106  F    Isotropic =   248.7696   Anisotropy =   136.6243

    107  C    Isotropic =    48.7590   Anisotropy =    14.5461

    108  F    Isotropic =   241.0551   Anisotropy =   139.4877

    109  F    Isotropic =   250.8857   Anisotropy =   133.3744

    110  F    Isotropic =   213.1564   Anisotropy =   140.1879

    111  C    Isotropic =    48.3943   Anisotropy =    14.7545

    112  F    Isotropic =   249.1917   Anisotropy =   135.0162

    113  F    Isotropic =   220.7951   Anisotropy =   142.6083

    114  F    Isotropic =   238.4329   Anisotropy =   143.4311

    115  C    Isotropic =    48.5435   Anisotropy =    15.9431

    116  F    Isotropic =   252.0218   Anisotropy =   133.4989

    117  F    Isotropic =   218.0752   Anisotropy =   151.0411

    118  F    Isotropic =   242.7609   Anisotropy =   141.6785

    119  C    Isotropic =    48.8681   Anisotropy =    13.8676

    120  F    Isotropic =   222.6843   Anisotropy =   143.7912

    121  F    Isotropic =   244.2474   Anisotropy =   138.8359

    122  F    Isotropic =   246.8438   Anisotropy =   140.5092

    123  C    Isotropic =    49.2262   Anisotropy =    14.4085

    124  F    Isotropic =   248.1294   Anisotropy =   137.3423

    125  F    Isotropic =   217.6728   Anisotropy =   143.6140

    126  F    Isotropic =   244.9757   Anisotropy =   135.6918

    127  C    Isotropic =    49.5319   Anisotropy =    18.1802

    128  F    Isotropic =   253.7179   Anisotropy =   127.9219

    129  F    Isotropic =   220.0537   Anisotropy =   136.5674

    130  F    Isotropic =   230.4132   Anisotropy =   150.4520

    131  H    Isotropic =    23.5684   Anisotropy =     7.8627

    132  H    Isotropic =    23.6699   Anisotropy =     5.1215

    133  H    Isotropic =    29.8111   Anisotropy =    17.8288

    134  H    Isotropic =    27.4990   Anisotropy =     4.1698

 Normal termination of Gaussian 09 at Thu Dec  2 14:22:31 2021.
 Gaussian 09:  ES64L-G09RevE.01 30-Nov-2015

 ----------------------------------------------------------------------
 # PBE1PBE gen pseudo=read int=(grid=ultrafine) empiricaldispersion=GD3
 BJ pop=nbo guess=read geom=check
 ----------------------------------------------------------------------

 --------------
 M003_1_5 title
 --------------
 Structure from the checkpoint file:  "M003_1_5_SPE.chk"
 Charge =  0 Multiplicity = 1

                         Standard orientation:
 ---------------------------------------------------------------------
 Center     Atomic      Atomic             Coordinates (Angstroms)
 Number     Number       Type             X           Y           Z
 ---------------------------------------------------------------------
      1         26           0       -0.106912   -1.007175    2.108236
      2         15           0        1.819479   -0.369480   -0.660395
      3         15           0       -1.749483    0.135152   -0.634218
      4          6           0        1.469193   -1.236625    0.897950
      5          6           0        0.599213   -2.403069    0.849147
      6          6           0        0.541428   -2.973797    2.159941
      7          6           0        1.337444   -2.166787    3.026730
      8          6           0        1.945337   -1.103883    2.270965
      9          6           0       -1.618811   -0.051426    1.185439
     10          6           0       -2.161791   -1.008234    2.149312
     11          6           0       -1.636740   -0.637507    3.438816
     12          6           0       -0.822079    0.523761    3.309600
     13          6           0       -0.787709    0.884027    1.927798
     14          6           0        3.331416   -1.245226   -1.240584
     15          6           0        3.596913   -2.543638   -0.782260
     16          6           0        4.766234   -3.207423   -1.181781
     17          6           0        5.671216   -2.591816   -2.052041
     18          6           0        5.392966   -1.302705   -2.528297
     19          6           0        4.230319   -0.629336   -2.134008
     20          6           0        2.422725    1.338305   -0.310759
     21          6           0        3.762198    1.626154    0.013290
     22          6           0        4.146508    2.938883    0.316871
     23          6           0        3.205808    3.979145    0.313502
     24          6           0        1.878373    3.695367   -0.025875
     25          6           0        1.494510    2.388120   -0.361880
     26          6           0       -2.368727    1.874491   -0.710113
     27          6           0       -2.056912    2.713602   -1.794660
     28          6           0       -2.514424    4.038056   -1.800587
     29          6           0       -3.287142    4.536978   -0.743328
     30          6           0       -3.604227    3.695522    0.329185
     31          6           0       -3.143008    2.373309    0.351996
     32          6           0       -3.168877   -0.909779   -1.155310
     33          6           0       -4.497112   -0.482503   -1.032649
     34          6           0       -5.542406   -1.346791   -1.392511
     35          6           0       -5.271472   -2.631172   -1.878556
     36          6           0       -3.938675   -3.041123   -2.027933
     37          6           0       -2.889843   -2.182781   -1.680031
     38          1           0        0.064117   -2.751328   -0.035965
     39          1           0       -0.242311    1.728585    1.508869
     40          1           0        2.905186   -3.045350   -0.101819
     41          1           0        6.586771   -3.105834   -2.353456
     42          1           0        4.033396    0.373900   -2.515436
     43          1           0        4.515705    0.834459    0.023522
     44          1           0        3.506542    4.997656    0.569149
     45          1           0        0.466154    2.184657   -0.675733
     46          1           0       -1.469142    2.328380   -2.633253
     47          1           0       -3.630875    5.574423   -0.751852
     48          1           0       -3.382953    1.739010    1.208442
     49          1           0       -4.729657    0.521885   -0.669134
     50          1           0       -6.088970   -3.301757   -2.152005
     51          1           0       -1.851147   -2.490454   -1.835550
     52         17           0        1.625251   -0.268633   -3.830248
     53         17           0       -1.672393    0.042031   -3.752977
     54         46           0        0.023221   -0.190421   -2.094599
     55          6           0        3.004481   -0.167518    2.832689
     56          1           0       -0.264206    1.008363    4.108178
     57          1           0       -1.827623   -1.187968    4.358788
     58          6           0       -3.243707   -2.069263    1.993807
     59          1           0        3.389302    0.442748    1.988068
     60          7           0        4.107238   -0.959031    3.425565
     61          6           0        4.649054   -1.935464    2.478467
     62          6           0        5.187497   -0.066233    3.863457
     63          1           0        5.472005   -2.486026    2.962625
     64          1           0        3.879520   -2.666159    2.189812
     65          1           0        5.053961   -1.467303    1.549257
     66          1           0        5.998720   -0.675089    4.295148
     67          1           0        5.610922    0.540675    3.029620
     68          1           0        4.821758    0.626030    4.636793
     69          6           0        1.280028    2.624098    5.681533
     70          6           0        1.604154    1.318781    6.087229
     71          6           0        2.177074    0.417644    5.179357
     72          6           0        2.430141    0.809539    3.852501
     73          6           0        2.127906    2.124106    3.461568
     74          6           0        1.549255    3.026454    4.365035
     75          1           0        0.828705    3.325055    6.390893
     76          1           0        1.412487    1.002695    7.118030
     77          1           0        2.458883   -0.591531    5.496243
     78          1           0        2.338892    2.441352    2.436406
     79          1           0        1.311250    4.044378    4.038733
     80          7           0       -4.375971   -1.731155    2.895882
     81          1           0       -3.574918   -2.076722    0.936248
     82          6           0       -5.490732   -2.662070    2.678138
     83          6           0       -4.865067   -0.359999    2.717390
     84          1           0       -5.919485   -2.587824    1.652905
     85          1           0       -5.159411   -3.697725    2.847468
     86          1           0       -6.292413   -2.430779    3.399472
     87          1           0       -5.285417   -0.169765    1.704167
     88          1           0       -5.671600   -0.179384    3.447876
     89          1           0       -4.063688    0.367421    2.919004
     90          6           0       -1.680576   -6.036732    2.851216
     91          6           0       -1.888909   -5.624820    1.526924
     92          6           0       -2.412578   -4.351074    1.263807
     93          6           0       -2.725908   -3.470117    2.311200
     94          6           0       -2.542747   -3.900371    3.638193
     95          6           0       -2.018718   -5.172277    3.905852
     96          1           0       -1.271231   -7.029741    3.062847
     97          1           0       -2.578861   -4.041594    0.229282
     98          1           0       -2.845048   -3.239077    4.456076
     99          6           0       -2.204004    4.936397   -2.977298
    100          9           0       -3.237667    4.955661   -3.861070
    101          9           0       -1.998849    6.220203   -2.570520
    102          9           0       -1.098060    4.528335   -3.645323
    103          6           0       -4.370382    4.217130    1.520369
    104          9           0       -5.149205    3.243751    2.072189
    105          9           0       -3.524249    4.649817    2.496429
    106          9           0       -5.175196    5.258593    1.189088
    107          6           0       -6.967047   -0.894103   -1.182667
    108          9           0       -7.125151    0.415390   -1.505070
    109          9           0       -7.846777   -1.619883   -1.916368
    110          9           0       -7.331937   -1.024393    0.130696
    111          6           0       -3.618036   -4.390398   -2.626917
    112          9           0       -4.643300   -5.267473   -2.468470
    113          9           0       -3.354011   -4.298432   -3.952204
    114          9           0       -2.511746   -4.938543   -2.035099
    115          6           0        5.078073   -4.549353   -0.568974
    116          9           0        5.985860   -5.247024   -1.296125
    117          9           0        5.596107   -4.399213    0.689083
    118          9           0        3.960568   -5.314134   -0.443130
    119          6           0        6.327584   -0.646045   -3.517689
    120          9           0        5.952465   -0.900599   -4.796728
    121          9           0        6.345059    0.705153   -3.358763
    122          9           0        7.603709   -1.097418   -3.370127
    123          6           0        5.565178    3.202546    0.763835
    124          9           0        5.943514    4.481113    0.515743
    125          9           0        5.688169    2.996575    2.108811
    126          9           0        6.445041    2.371283    0.149395
    127          6           0        0.826643    4.778937   -0.042199
    128          9           0        1.265976    5.926117    0.531845
    129          9           0        0.430734    5.069654   -1.307758
    130          9           0       -0.285214    4.372304    0.643566
    131          1           0       -1.653758   -6.293515    0.692427
    132          1           0       -1.880381   -5.494684    4.943341
    133          1           0       -0.066236   -3.825576    2.458336
    134          1           0        1.453648   -2.303019    4.101483
 ---------------------------------------------------------------------

 SCF Done:  E(RPBE1PBE) =  -6669.05017372     A.U. after    7 cycles

 The electronic state is 1-A.
 Alpha  occ. eigenvalues -- -101.64610-101.64424 -77.30424 -77.30188 -24.83541
 Alpha  occ. eigenvalues --  -24.83224 -24.83192 -24.83169 -24.82973 -24.82766
 Alpha  occ. eigenvalues --  -24.82517 -24.82413 -24.82375 -24.82367 -24.82319
 Alpha  occ. eigenvalues --  -24.82288 -24.82286 -24.82135 -24.82041 -24.82009
 Alpha  occ. eigenvalues --  -24.81785 -24.81778 -24.81559 -24.81505 -24.81257
 Alpha  occ. eigenvalues --  -24.81244 -24.81058 -24.80967 -14.40805 -14.40499
 Alpha  occ. eigenvalues --  -10.51106 -10.50918 -10.50111 -10.50051 -10.49998
 Alpha  occ. eigenvalues --  -10.49836 -10.49225 -10.49057 -10.31028 -10.30986
 Alpha  occ. eigenvalues --  -10.30933 -10.30516 -10.30503 -10.30359 -10.29866
 Alpha  occ. eigenvalues --  -10.29790 -10.29778 -10.29616 -10.29603 -10.29572
 Alpha  occ. eigenvalues --  -10.29481 -10.29276 -10.29274 -10.29273 -10.29258
 Alpha  occ. eigenvalues --  -10.29225 -10.29209 -10.29166 -10.29161 -10.29142
 Alpha  occ. eigenvalues --  -10.29071 -10.29049 -10.29037 -10.28980 -10.28803
 Alpha  occ. eigenvalues --  -10.28772 -10.28704 -10.28419 -10.27898 -10.27612
 Alpha  occ. eigenvalues --  -10.27146 -10.27094 -10.26937 -10.26848 -10.26521
 Alpha  occ. eigenvalues --  -10.26168 -10.25671 -10.25656 -10.25609 -10.25535
 Alpha  occ. eigenvalues --  -10.25507 -10.25473 -10.25371 -10.25345 -10.25320
 Alpha  occ. eigenvalues --  -10.25237 -10.25173 -10.25036 -10.24996 -10.24960
 Alpha  occ. eigenvalues --   -9.47126  -9.46925  -7.20334  -7.20148  -7.19842
 Alpha  occ. eigenvalues --   -7.19793  -7.19640  -7.19582  -6.69552  -6.69307
 Alpha  occ. eigenvalues --   -4.83160  -4.83131  -4.82904  -4.82891  -4.82885
 Alpha  occ. eigenvalues --   -4.82643  -3.64456  -3.55255  -2.29001  -2.24778
 Alpha  occ. eigenvalues --   -2.24697  -2.23060  -2.22735  -2.19566  -1.36878
 Alpha  occ. eigenvalues --   -1.36688  -1.35916  -1.35871  -1.35773  -1.35664
 Alpha  occ. eigenvalues --   -1.35036  -1.34848  -1.28632  -1.28467  -1.28189
 Alpha  occ. eigenvalues --   -1.27941  -1.27711  -1.27608  -1.27491  -1.27475
 Alpha  occ. eigenvalues --   -1.27199  -1.27146  -1.27103  -1.26902  -1.26729
 Alpha  occ. eigenvalues --   -1.26514  -1.26370  -1.26192  -0.98022  -0.97557
 Alpha  occ. eigenvalues --   -0.95996  -0.95380  -0.94828  -0.94351  -0.94219
 Alpha  occ. eigenvalues --   -0.93566  -0.90422  -0.90063  -0.87258  -0.86572
 Alpha  occ. eigenvalues --   -0.86123  -0.85919  -0.85668  -0.85571  -0.83803
 Alpha  occ. eigenvalues --   -0.83515  -0.82621  -0.82293  -0.79226  -0.78911
 Alpha  occ. eigenvalues --   -0.78847  -0.78526  -0.78224  -0.77874  -0.77583
 Alpha  occ. eigenvalues --   -0.77114  -0.76647  -0.76403  -0.76055  -0.75659
 Alpha  occ. eigenvalues --   -0.75583  -0.75329  -0.74739  -0.74726  -0.73688
 Alpha  occ. eigenvalues --   -0.73512  -0.72950  -0.72550  -0.72011  -0.71690
 Alpha  occ. eigenvalues --   -0.69474  -0.68832  -0.68506  -0.68147  -0.67879
 Alpha  occ. eigenvalues --   -0.67837  -0.66782  -0.66445  -0.65672  -0.65339
 Alpha  occ. eigenvalues --   -0.64407  -0.64222  -0.64097  -0.64072  -0.63903
 Alpha  occ. eigenvalues --   -0.63605  -0.63500  -0.63204  -0.63046  -0.62943
 Alpha  occ. eigenvalues --   -0.62844  -0.62827  -0.62692  -0.62664  -0.62602
 Alpha  occ. eigenvalues --   -0.62491  -0.62402  -0.61958  -0.61948  -0.61923
 Alpha  occ. eigenvalues --   -0.61761  -0.61483  -0.60720  -0.60590  -0.59863
 Alpha  occ. eigenvalues --   -0.59781  -0.58481  -0.57520  -0.57303  -0.57112
 Alpha  occ. eigenvalues --   -0.57029  -0.56839  -0.56403  -0.55967  -0.55530
 Alpha  occ. eigenvalues --   -0.55395  -0.55324  -0.54846  -0.54501  -0.54385
 Alpha  occ. eigenvalues --   -0.54013  -0.53386  -0.52766  -0.52650  -0.51866
 Alpha  occ. eigenvalues --   -0.51766  -0.51591  -0.51546  -0.51368  -0.51212
 Alpha  occ. eigenvalues --   -0.50890  -0.50756  -0.50650  -0.50593  -0.50552
 Alpha  occ. eigenvalues --   -0.50454  -0.50387  -0.50305  -0.50282  -0.50145
 Alpha  occ. eigenvalues --   -0.49863  -0.49568  -0.49444  -0.49300  -0.49237
 Alpha  occ. eigenvalues --   -0.48901  -0.48640  -0.48498  -0.48318  -0.48186
 Alpha  occ. eigenvalues --   -0.47958  -0.47877  -0.47848  -0.47717  -0.47676
 Alpha  occ. eigenvalues --   -0.47557  -0.47292  -0.47228  -0.47151  -0.47038
 Alpha  occ. eigenvalues --   -0.46922  -0.46873  -0.46706  -0.46604  -0.46568
 Alpha  occ. eigenvalues --   -0.46509  -0.46398  -0.46252  -0.46241  -0.46090
 Alpha  occ. eigenvalues --   -0.45974  -0.45893  -0.45764  -0.45655  -0.45638
 Alpha  occ. eigenvalues --   -0.45561  -0.45408  -0.45249  -0.45141  -0.45097
 Alpha  occ. eigenvalues --   -0.45058  -0.45011  -0.44917  -0.44829  -0.44786
 Alpha  occ. eigenvalues --   -0.44715  -0.44638  -0.44512  -0.44431  -0.44297
 Alpha  occ. eigenvalues --   -0.44133  -0.44030  -0.43905  -0.43784  -0.43689
 Alpha  occ. eigenvalues --   -0.43506  -0.43064  -0.42950  -0.42717  -0.42419
 Alpha  occ. eigenvalues --   -0.42243  -0.41839  -0.41655  -0.41369  -0.41141
 Alpha  occ. eigenvalues --   -0.40919  -0.40799  -0.40747  -0.40511  -0.40335
 Alpha  occ. eigenvalues --   -0.40184  -0.40030  -0.39949  -0.39820  -0.39744
 Alpha  occ. eigenvalues --   -0.39480  -0.39269  -0.38971  -0.38365  -0.37881
 Alpha  occ. eigenvalues --   -0.37485  -0.37376  -0.37228  -0.37043  -0.36919
 Alpha  occ. eigenvalues --   -0.34864  -0.34626  -0.34339  -0.33823  -0.33548
 Alpha  occ. eigenvalues --   -0.33466  -0.32820  -0.32601  -0.32300  -0.31998
 Alpha  occ. eigenvalues --   -0.31827  -0.31576  -0.31315  -0.30602  -0.30305
 Alpha  occ. eigenvalues --   -0.29713  -0.29392  -0.29203  -0.28953  -0.28817
 Alpha  occ. eigenvalues --   -0.28198  -0.27708  -0.27494  -0.27317  -0.26848
 Alpha  occ. eigenvalues --   -0.26441  -0.26232  -0.26152  -0.25766  -0.25335
 Alpha virt. eigenvalues --   -0.10973  -0.09437  -0.09024  -0.08507  -0.08000
 Alpha virt. eigenvalues --   -0.07349  -0.07124  -0.06822  -0.06569  -0.04573
 Alpha virt. eigenvalues --   -0.04349  -0.04001  -0.03643  -0.03530  -0.03410

 Mulliken charges:
               1
     1  Fe  -1.164620
     2  P    0.192081
     3  P    0.063476
     4  C    0.370029
     5  C   -0.330858
     6  C    0.062492
     7  C   -0.119578
     8  C    0.331520
     9  C    0.421212
    10  C    0.378558
    11  C   -0.060839
    12  C    0.016658
    13  C   -0.280036
    14  C    0.206310
    15  C   -0.333328
    16  C    0.140014
    17  C   -0.296695
    18  C    0.192887
    19  C   -0.410482
    20  C    0.054319
    21  C   -0.228404
    22  C    0.172888
    23  C   -0.230880
    24  C    0.041042
    25  C   -0.231925
    26  C    0.073434
    27  C   -0.249529
    28  C    0.127431
    29  C   -0.284302
    30  C    0.097724
    31  C   -0.219725
    32  C    0.143638
    33  C   -0.266811
    34  C    0.109741
    35  C   -0.289623
    36  C    0.226562
    37  C   -0.319867
    38  H    0.126027
    39  H    0.171636
    40  H    0.203977
    41  H    0.171639
    42  H    0.188984
    43  H    0.202490
    44  H    0.173457
    45  H    0.233608
    46  H    0.231016
    47  H    0.165057
    48  H    0.150566
    49  H    0.184607
    50  H    0.171690
    51  H    0.204415
    52  Cl  -0.389500
    53  Cl  -0.372654
    54  Pd   0.065688
    55  C    0.152805
    56  H    0.144008
    57  H    0.109613
    58  C   -0.019510
    59  H   -0.132063
    60  N   -0.077751
    61  C   -0.332953
    62  C   -0.318372
    63  H    0.143993
    64  H    0.136222
    65  H    0.099327
    66  H    0.133730
    67  H    0.107807
    68  H    0.154373
    69  C   -0.121874
    70  C   -0.123420
    71  C   -0.195292
    72  C   -0.058639
    73  C   -0.119927
    74  C   -0.156368
    75  H    0.126213
    76  H    0.124143
    77  H    0.139060
    78  H    0.072566
    79  H    0.122462
    80  N   -0.073538
    81  H    0.026036
    82  C   -0.330845
    83  C   -0.335704
    84  H    0.112243
    85  H    0.155231
    86  H    0.131249
    87  H    0.093815
    88  H    0.137301
    89  H    0.155015
    90  C   -0.117127
    91  C   -0.154792
    92  C   -0.177737
    93  C   -0.031942
    94  C   -0.177472
    95  C   -0.127834
    96  H    0.125507
    97  H    0.107212
    98  H    0.139325
    99  C    0.457906
   100  F   -0.153767
   101  F   -0.169435
   102  F   -0.155578
   103  C    0.427082
   104  F   -0.162450
   105  F   -0.157372
   106  F   -0.156992
   107  C    0.436771
   108  F   -0.155868
   109  F   -0.155308
   110  F   -0.156433
   111  C    0.442740
   112  F   -0.160094
   113  F   -0.139581
   114  F   -0.169999
   115  C    0.433896
   116  F   -0.156531
   117  F   -0.159040
   118  F   -0.161419
   119  C    0.435848
   120  F   -0.146218
   121  F   -0.163357
   122  F   -0.163962
   123  C    0.432577
   124  F   -0.154245
   125  F   -0.155005
   126  F   -0.157725
   127  C    0.444133
   128  F   -0.156558
   129  F   -0.146652
   130  F   -0.169844
   131  H    0.128743
   132  H    0.122690
   133  H    0.151880
   134  H    0.115856
 Sum of Mulliken charges =  -0.00000

 Dipole moment (field-independent basis, Debye):
    X=              0.1507    Y=             -1.6903    Z=             11.9212  Tot=             12.0414
 Quadrupole moment (field-independent basis, Debye-Ang):
   XX=           -589.0386   YY=           -572.0897   ZZ=           -596.3858
   XY=              9.7328   XZ=              4.2072   YZ=             -4.0906

 Summary of Natural Population Analysis:

                                       Natural Population
                Natural  -----------------------------------------------
    Atom  No    Charge         Core      Valence    Rydberg      Total
 -----------------------------------------------------------------------
     Fe    1   -0.27847     17.99007     8.24327    0.04513    26.27847
      P    2    1.22392      9.99553     3.72706    0.05349    13.77608
      P    3    1.20435      9.99566     3.74458    0.05540    13.79565
      C    4   -0.38822      1.99840     4.34564    0.04418     6.38822
      C    5   -0.20640      1.99863     4.18408    0.02368     6.20640
      C    6   -0.18246      1.99880     4.15912    0.02455     6.18246
      C    7   -0.19925      1.99870     4.17743    0.02312     6.19925
      C    8    0.03568      1.99862     3.92825    0.03745     5.96432
      C    9   -0.38294      1.99843     4.33999    0.04452     6.38294
      C   10    0.03441      1.99862     3.92944    0.03754     5.96559
      C   11   -0.20222      1.99869     4.18018    0.02335     6.20222
      C   12   -0.18271      1.99880     4.15950    0.02441     6.18271
      C   13   -0.20531      1.99865     4.18184    0.02482     6.20531
      C   14   -0.34331      1.99900     4.30899    0.03532     6.34331
      C   15   -0.15217      1.99902     4.13370    0.01944     6.15217
      C   16   -0.15458      1.99897     4.13048    0.02514     6.15458
      C   17   -0.13372      1.99907     4.11842    0.01623     6.13372
      C   18   -0.15363      1.99897     4.12979    0.02486     6.15363
      C   19   -0.12807      1.99904     4.10993    0.01911     6.12807
      C   20   -0.34290      1.99899     4.31056    0.03335     6.34290
      C   21   -0.16435      1.99904     4.14464    0.02067     6.16435
      C   22   -0.14612      1.99896     4.12229    0.02487     6.14612
      C   23   -0.13719      1.99906     4.12243    0.01569     6.13719
      C   24   -0.14937      1.99896     4.12527    0.02514     6.14937
      C   25   -0.14716      1.99902     4.12945    0.01869     6.14716
      C   26   -0.35594      1.99901     4.32248    0.03445     6.35594
      C   27   -0.14620      1.99904     4.12846    0.01870     6.14620
      C   28   -0.13623      1.99897     4.11258    0.02467     6.13623
      C   29   -0.12790      1.99906     4.11290    0.01594     6.12790
      C   30   -0.15058      1.99896     4.12651    0.02511     6.15058
      C   31   -0.16666      1.99902     4.14698    0.02066     6.16666
      C   32   -0.33016      1.99901     4.29512    0.03604     6.33016
      C   33   -0.16057      1.99899     4.14171    0.01987     6.16057
      C   34   -0.14500      1.99897     4.11982    0.02622     6.14500
      C   35   -0.14026      1.99907     4.12515    0.01604     6.14026
      C   36   -0.14971      1.99896     4.12535    0.02540     6.14971
      C   37   -0.13389      1.99900     4.11701    0.01787     6.13389
      H   38    0.26140      0.00000     0.73629    0.00231     0.73860
      H   39    0.26104      0.00000     0.73693    0.00203     0.73896
      H   40    0.25085      0.00000     0.74686    0.00229     0.74915
      H   41    0.25748      0.00000     0.74121    0.00131     0.74252
      H   42    0.26457      0.00000     0.73391    0.00152     0.73543
      H   43    0.25759      0.00000     0.73950    0.00292     0.74241
      H   44    0.26266      0.00000     0.73601    0.00133     0.73734
      H   45    0.25302      0.00000     0.74481    0.00217     0.74698
      H   46    0.28283      0.00000     0.71561    0.00156     0.71717
      H   47    0.25661      0.00000     0.74204    0.00134     0.74339
      H   48    0.25097      0.00000     0.74640    0.00263     0.74903
      H   49    0.24858      0.00000     0.74928    0.00213     0.75142
      H   50    0.25951      0.00000     0.73915    0.00133     0.74049
      H   51    0.25425      0.00000     0.74435    0.00140     0.74575
     Cl   52   -0.36611      9.99963     7.35753    0.00896    17.36611
     Cl   53   -0.38581      9.99963     7.37807    0.00812    17.38581
     Pd   54   -0.19307     35.98912    10.17675    0.02720    46.19307
      C   55   -0.10900      1.99908     4.08520    0.02472     6.10900
      H   56    0.27429      0.00000     0.72340    0.00231     0.72571
      H   57    0.26188      0.00000     0.73651    0.00161     0.73812
      C   58   -0.11388      1.99908     4.08912    0.02568     6.11388
      H   59    0.20129      0.00000     0.79415    0.00456     0.79871
      N   60   -0.40942      1.99955     5.38325    0.02662     7.40942
      C   61   -0.42841      1.99941     4.41536    0.01364     6.42841
      C   62   -0.43139      1.99940     4.42192    0.01007     6.43139
      H   63    0.21656      0.00000     0.78215    0.00129     0.78344
      H   64    0.21149      0.00000     0.78671    0.00180     0.78851
      H   65    0.16497      0.00000     0.83152    0.00350     0.83503
      H   66    0.20934      0.00000     0.78922    0.00144     0.79066
      H   67    0.17611      0.00000     0.82124    0.00266     0.82389
      H   68    0.21739      0.00000     0.78126    0.00135     0.78261
      C   69   -0.22388      1.99922     4.20670    0.01797     6.22388
      C   70   -0.21192      1.99922     4.19512    0.01757     6.21192
      C   71   -0.22720      1.99906     4.20956    0.01857     6.22720
      C   72   -0.00636      1.99906     3.98530    0.02200     6.00636
      C   73   -0.22500      1.99907     4.20753    0.01840     6.22500
      C   74   -0.21139      1.99921     4.19420    0.01797     6.21139
      H   75    0.22582      0.00000     0.77304    0.00114     0.77418
      H   76    0.22392      0.00000     0.77490    0.00117     0.77608
      H   77    0.23272      0.00000     0.76540    0.00189     0.76728
      H   78    0.21598      0.00000     0.78165    0.00237     0.78402
      H   79    0.22539      0.00000     0.77332    0.00129     0.77461
      N   80   -0.41381      1.99956     5.38763    0.02661     7.41381
      H   81    0.20974      0.00000     0.78550    0.00476     0.79026
      C   82   -0.43149      1.99940     4.42195    0.01014     6.43149
      C   83   -0.42880      1.99940     4.41635    0.01304     6.42880
      H   84    0.17794      0.00000     0.81937    0.00269     0.82206
      H   85    0.21613      0.00000     0.78256    0.00131     0.78387
      H   86    0.20856      0.00000     0.78998    0.00145     0.79144
      H   87    0.17175      0.00000     0.82568    0.00257     0.82825
      H   88    0.21464      0.00000     0.78402    0.00134     0.78536
      H   89    0.20533      0.00000     0.79276    0.00191     0.79467
      C   90   -0.22501      1.99922     4.20791    0.01788     6.22501
      C   91   -0.20917      1.99921     4.19242    0.01754     6.20917
      C   92   -0.23014      1.99908     4.21224    0.01882     6.23014
      C   93   -0.00703      1.99906     3.98618    0.02179     6.00703
      C   94   -0.22853      1.99906     4.21077    0.01870     6.22853
      C   95   -0.21269      1.99922     4.19584    0.01763     6.21269
      H   96    0.22499      0.00000     0.77385    0.00116     0.77501
      H   97    0.22335      0.00000     0.77470    0.00195     0.77665
      H   98    0.23134      0.00000     0.76676    0.00190     0.76866
      C   99    0.94996      1.99913     3.00340    0.04751     5.05004
      F  100   -0.30605      1.99992     7.29778    0.00834     9.30605
      F  101   -0.31255      1.99993     7.30421    0.00842     9.31255
      F  102   -0.30127      1.99992     7.29259    0.00876     9.30127
      C  103    0.95118      1.99912     3.00254    0.04716     5.04882
      F  104   -0.31322      1.99993     7.30505    0.00824     9.31322
      F  105   -0.30964      1.99992     7.30142    0.00829     9.30964
      F  106   -0.30642      1.99992     7.29798    0.00852     9.30642
      C  107    0.95032      1.99912     3.00332    0.04725     5.04968
      F  108   -0.30587      1.99992     7.29759    0.00835     9.30587
      F  109   -0.30535      1.99992     7.29689    0.00854     9.30535
      F  110   -0.31698      1.99993     7.30845    0.00861     9.31698
      C  111    0.95102      1.99912     3.00253    0.04733     5.04898
      F  112   -0.30842      1.99992     7.29998    0.00852     9.30842
      F  113   -0.29676      1.99992     7.28828    0.00856     9.29676
      F  114   -0.32004      1.99993     7.31173    0.00839     9.32004
      C  115    0.95161      1.99912     3.00212    0.04715     5.04839
      F  116   -0.30614      1.99992     7.29768    0.00854     9.30614
      F  117   -0.31664      1.99993     7.30837    0.00835     9.31664
      F  118   -0.30968      1.99992     7.30148    0.00827     9.30968
      C  119    0.95088      1.99914     3.00231    0.04768     5.04912
      F  120   -0.30113      1.99992     7.29268    0.00852     9.30113
      F  121   -0.31048      1.99992     7.30206    0.00849     9.31048
      F  122   -0.31226      1.99993     7.30385    0.00848     9.31226
      C  123    0.95004      1.99912     3.00359    0.04724     5.04996
      F  124   -0.30405      1.99992     7.29561    0.00851     9.30405
      F  125   -0.31212      1.99993     7.30341    0.00879     9.31212
      F  126   -0.30492      1.99992     7.29657    0.00843     9.30492
      C  127    0.95116      1.99912     3.00158    0.04815     5.04884
      F  128   -0.30489      1.99992     7.29679    0.00818     9.30489
      F  129   -0.30123      1.99992     7.29282    0.00850     9.30123
      F  130   -0.31735      1.99993     7.30893    0.00850     9.31735
      H  131    0.22866      0.00000     0.77013    0.00122     0.77134
      H  132    0.22281      0.00000     0.77600    0.00119     0.77719
      H  133    0.27660      0.00000     0.72108    0.00232     0.72340
      H  134    0.26173      0.00000     0.73669    0.00157     0.73827
 =======================================================================
   * Total *    0.00000    265.90789   499.98678    2.10533   768.00000

 Normal termination of Gaussian 09 at Thu Dec  2 16:07:50 2021.
