 Gaussian 09, Revision E.01,

 ----------------------------------------------------------------------
 # PBE1PBE gen pseudo=read int=(grid=ultrafine) empiricaldispersion=GD3
 BJ nmr=giao
 ----------------------------------------------------------------------

 --------------
 M003_1_3 title
 --------------
 Symbolic Z-matrix:
 Charge =  0 Multiplicity = 1

 SCF Done:  E(RPBE1PBE) =  -6669.04765730     A.U. after   32 cycles

      1  Fe   Isotropic = -6108.6989   Anisotropy =  7687.3437

      2  P    Isotropic =   219.3639   Anisotropy =   109.5544

      3  P    Isotropic =   237.0049   Anisotropy =   149.1625

      4  C    Isotropic =   112.1864   Anisotropy =    82.8503

      5  C    Isotropic =    95.3020   Anisotropy =    80.5673

      6  C    Isotropic =   100.0324   Anisotropy =   107.8839

      7  C    Isotropic =   106.1051   Anisotropy =    85.4618

      8  C    Isotropic =    86.3346   Anisotropy =    81.3416

      9  C    Isotropic =   110.4844   Anisotropy =    77.4102

     10  C    Isotropic =    77.0527   Anisotropy =    95.8400

     11  C    Isotropic =   108.1328   Anisotropy =    93.1488

     12  C    Isotropic =   104.8991   Anisotropy =   100.3890

     13  C    Isotropic =   107.8308   Anisotropy =    81.3437

     14  C    Isotropic =    40.8367   Anisotropy =   178.3993

     15  C    Isotropic =    40.5622   Anisotropy =   204.7073

     16  C    Isotropic =    48.5078   Anisotropy =   159.4161

     17  C    Isotropic =    52.9558   Anisotropy =   191.6111

     18  C    Isotropic =    48.7879   Anisotropy =   159.7194

     19  C    Isotropic =    46.7828   Anisotropy =   199.7024

     20  C    Isotropic =    41.7935   Anisotropy =   181.9470

     21  C    Isotropic =    40.5910   Anisotropy =   208.9347

     22  C    Isotropic =    46.2469   Anisotropy =   161.4340

     23  C    Isotropic =    52.6449   Anisotropy =   193.3898

     24  C    Isotropic =    46.0570   Anisotropy =   160.6781

     25  C    Isotropic =    33.1815   Anisotropy =   191.3558

     26  C    Isotropic =    42.7483   Anisotropy =   180.6858

     27  C    Isotropic =    41.3750   Anisotropy =   200.7521

     28  C    Isotropic =    47.0360   Anisotropy =   161.1500

     29  C    Isotropic =    50.5566   Anisotropy =   196.7415

     30  C    Isotropic =    43.1612   Anisotropy =   167.7839

     31  C    Isotropic =    37.9166   Anisotropy =   206.9517

     32  C    Isotropic =    41.9800   Anisotropy =   189.6614

     33  C    Isotropic =    42.5273   Anisotropy =   204.2876

     34  C    Isotropic =    46.8388   Anisotropy =   161.5782

     35  C    Isotropic =    53.5008   Anisotropy =   192.0312

     36  C    Isotropic =    46.8269   Anisotropy =   161.9361

     37  C    Isotropic =    36.4098   Anisotropy =   199.6553

     38  H    Isotropic =    26.5045   Anisotropy =     5.9666

     39  H    Isotropic =    27.9490   Anisotropy =     8.4882

     40  H    Isotropic =    23.5507   Anisotropy =    15.2671

     41  H    Isotropic =    23.2202   Anisotropy =     9.4627

     42  H    Isotropic =    23.6437   Anisotropy =    17.6641

     43  H    Isotropic =    22.4824   Anisotropy =    10.8353

     44  H    Isotropic =    22.9908   Anisotropy =    10.8931

     45  H    Isotropic =    21.0954   Anisotropy =    13.4078

     46  H    Isotropic =    23.1445   Anisotropy =    15.4726

     47  H    Isotropic =    22.9381   Anisotropy =     8.9200

     48  H    Isotropic =    20.7523   Anisotropy =    17.5658

     49  H    Isotropic =    23.5110   Anisotropy =    15.2855

     50  H    Isotropic =    22.9855   Anisotropy =     9.2700

     51  H    Isotropic =    21.6452   Anisotropy =    15.3118

     52  Cl   Isotropic =   780.4412   Anisotropy =   368.5910

     53  Cl   Isotropic =   843.1718   Anisotropy =   561.4919

     54  Pd   Isotropic =  -153.4060   Anisotropy =   240.9280

     55  C    Isotropic =   116.1698   Anisotropy =    30.4380

     56  H    Isotropic =    27.6204   Anisotropy =    10.6811

     57  H    Isotropic =    27.3701   Anisotropy =     4.5561

     58  C    Isotropic =   117.3482   Anisotropy =    41.9048

     59  H    Isotropic =    27.1716   Anisotropy =     5.9232

     60  N    Isotropic =   201.5990   Anisotropy =    59.0205

     61  C    Isotropic =   140.7912   Anisotropy =    54.8722

     62  C    Isotropic =   145.3571   Anisotropy =    47.7807

     63  H    Isotropic =    29.6201   Anisotropy =     9.3893

     64  H    Isotropic =    29.2868   Anisotropy =    11.1700

     65  H    Isotropic =    30.4478   Anisotropy =     8.0421

     66  H    Isotropic =    29.9457   Anisotropy =    10.9266

     67  H    Isotropic =    29.7249   Anisotropy =    10.0253

     68  H    Isotropic =    29.6527   Anisotropy =     7.2253

     69  C    Isotropic =    51.0434   Anisotropy =   189.4364

     70  C    Isotropic =    51.7302   Anisotropy =   187.3474

     71  C    Isotropic =    50.9430   Anisotropy =   182.8822

     72  C    Isotropic =    40.6189   Anisotropy =   191.5158

     73  C    Isotropic =    47.8834   Anisotropy =   165.8987

     74  C    Isotropic =    50.3637   Anisotropy =   187.0995

     75  H    Isotropic =    23.7686   Anisotropy =     3.5822

     76  H    Isotropic =    23.7389   Anisotropy =     6.5536

     77  H    Isotropic =    23.8666   Anisotropy =    11.3118

     78  H    Isotropic =    24.4361   Anisotropy =     9.5626

     79  H    Isotropic =    23.8295   Anisotropy =     7.8391

     80  N    Isotropic =   189.8682   Anisotropy =    59.6324

     81  H    Isotropic =    28.9597   Anisotropy =    14.6334

     82  C    Isotropic =   139.5228   Anisotropy =    61.7088

     83  C    Isotropic =   139.6606   Anisotropy =    54.9544

     84  H    Isotropic =    30.0761   Anisotropy =     8.0557

     85  H    Isotropic =    29.5992   Anisotropy =     7.2406

     86  H    Isotropic =    29.5203   Anisotropy =    12.6336

     87  H    Isotropic =    29.5676   Anisotropy =     5.4654

     88  H    Isotropic =    29.2396   Anisotropy =    10.7113

     89  H    Isotropic =    29.3138   Anisotropy =     7.8752

     90  C    Isotropic =    51.5836   Anisotropy =   187.5077

     91  C    Isotropic =    50.4705   Anisotropy =   189.3397

     92  C    Isotropic =    52.3970   Anisotropy =   191.2861

     93  C    Isotropic =    30.4875   Anisotropy =   205.8534

     94  C    Isotropic =    49.1457   Anisotropy =   173.3082

     95  C    Isotropic =    50.7281   Anisotropy =   190.5684

     96  H    Isotropic =    23.7584   Anisotropy =     3.9093

     97  H    Isotropic =    23.6259   Anisotropy =     9.7854

     98  H    Isotropic =    24.4866   Anisotropy =     6.5735

     99  C    Isotropic =    48.5220   Anisotropy =    15.8674

    100  F    Isotropic =   251.0916   Anisotropy =   133.2423

    101  F    Isotropic =   237.9240   Anisotropy =   146.2694

    102  F    Isotropic =   221.5973   Anisotropy =   147.7755

    103  C    Isotropic =    49.0046   Anisotropy =    14.5059

    104  F    Isotropic =   252.9912   Anisotropy =   115.7503

    105  F    Isotropic =   224.0192   Anisotropy =   152.0038

    106  F    Isotropic =   231.8828   Anisotropy =   149.1447

    107  C    Isotropic =    48.8629   Anisotropy =    15.1321

    108  F    Isotropic =   254.8802   Anisotropy =   128.0049

    109  F    Isotropic =   216.0472   Anisotropy =   143.1046

    110  F    Isotropic =   234.9824   Anisotropy =   143.5706

    111  C    Isotropic =    48.4052   Anisotropy =    13.8329

    112  F    Isotropic =   217.4652   Anisotropy =   151.3694

    113  F    Isotropic =   242.7111   Anisotropy =   140.8794

    114  F    Isotropic =   248.2410   Anisotropy =   127.1468

    115  C    Isotropic =    48.8884   Anisotropy =    14.0600

    116  F    Isotropic =   245.3909   Anisotropy =   138.6959

    117  F    Isotropic =   246.6718   Anisotropy =   141.4520

    118  F    Isotropic =   222.2017   Anisotropy =   144.2975

    119  C    Isotropic =    48.4044   Anisotropy =    14.4438

    120  F    Isotropic =   217.0975   Anisotropy =   151.6620

    121  F    Isotropic =   252.6895   Anisotropy =   128.1332

    122  F    Isotropic =   240.0893   Anisotropy =   144.5570

    123  C    Isotropic =    48.6118   Anisotropy =    14.8287

    124  F    Isotropic =   241.6338   Anisotropy =   130.2972

    125  F    Isotropic =   246.1185   Anisotropy =   135.8262

    126  F    Isotropic =   214.6549   Anisotropy =   147.5853

    127  C    Isotropic =    49.8548   Anisotropy =    18.6853

    128  F    Isotropic =   255.7203   Anisotropy =   127.4351

    129  F    Isotropic =   228.3943   Anisotropy =   132.0304

    130  F    Isotropic =   222.6662   Anisotropy =   148.6117

    131  H    Isotropic =    23.7405   Anisotropy =     5.1543

    132  H    Isotropic =    23.6429   Anisotropy =     8.2482

    133  H    Isotropic =    29.7648   Anisotropy =    18.0568

    134  H    Isotropic =    27.5652   Anisotropy =     8.2833

 Normal termination of Gaussian 09 at Thu Dec  2 14:49:46 2021.
 Gaussian 09:  ES64L-G09RevE.01 30-Nov-2015

 ----------------------------------------------------------------------
 # PBE1PBE gen pseudo=read int=(grid=ultrafine) empiricaldispersion=GD3
 BJ pop=nbo guess=read geom=check
 ----------------------------------------------------------------------

 --------------
 M003_1_3 title
 --------------
 Structure from the checkpoint file:  "M003_1_3_SPE.chk"
 Charge =  0 Multiplicity = 1

                         Standard orientation:
 ---------------------------------------------------------------------
 Center     Atomic      Atomic             Coordinates (Angstroms)
 Number     Number       Type             X           Y           Z
 ---------------------------------------------------------------------
      1         26           0       -0.019588   -1.550250    1.632757
      2         15           0        1.788094   -0.053941   -0.789269
      3         15           0       -1.795306    0.304543   -0.540590
      4          6           0        1.498575   -1.439298    0.348651
      5          6           0        0.558294   -2.459542   -0.082547
      6          6           0        0.464188   -3.450882    0.939890
      7          6           0        1.320697   -3.059236    2.011723
      8          6           0        1.989450   -1.826003    1.671665
      9          6           0       -1.532526   -0.320437    1.163368
     10          6           0       -2.043371   -1.444983    1.950111
     11          6           0       -1.337175   -1.424533    3.206621
     12          6           0       -0.434996   -0.318850    3.231192
     13          6           0       -0.545216    0.364518    1.981346
     14          6           0        3.351207   -0.540186   -1.623032
     15          6           0        4.192953    0.433885   -2.187844
     16          6           0        5.390261    0.047502   -2.803439
     17          6           0        5.753986   -1.303369   -2.871154
     18          6           0        4.904219   -2.270561   -2.319713
     19          6           0        3.702731   -1.895250   -1.704536
     20          6           0        2.263540    1.498616    0.084326
     21          6           0        3.504274    1.659580    0.730266
     22          6           0        3.819652    2.892899    1.320134
     23          6           0        2.917185    3.966730    1.274741
     24          6           0        1.695877    3.806957    0.614483
     25          6           0        1.376688    2.584166    0.007564
     26          6           0       -2.480920    1.977182   -0.150527
     27          6           0       -3.154049    2.165290    1.067713
     28          6           0       -3.696248    3.416581    1.392051
     29          6           0       -3.552086    4.495774    0.515384
     30          6           0       -2.870464    4.308407   -0.696243
     31          6           0       -2.340299    3.059239   -1.039842
     32          6           0       -3.219619   -0.635026   -1.227245
     33          6           0       -4.543382   -0.306542   -0.909919
     34          6           0       -5.598863   -1.065115   -1.441063
     35          6           0       -5.342273   -2.140854   -2.296706
     36          6           0       -4.014449   -2.448637   -2.633007
     37          6           0       -2.956830   -1.700036   -2.106288
     38          1           0       -0.001872   -2.429867   -1.018504
     39          1           0        0.028388    1.240370    1.679587
     40          1           0        3.924750    1.491284   -2.148187
     41          1           0        6.693145   -1.597773   -3.346403
     42          1           0        3.051077   -2.664371   -1.284542
     43          1           0        4.210023    0.820050    0.763676
     44          1           0        3.176445    4.925470    1.729431
     45          1           0        0.442695    2.477086   -0.555640
     46          1           0       -3.259568    1.338748    1.773742
     47          1           0       -3.959284    5.476457    0.775041
     48          1           0       -1.832492    2.918207   -1.998641
     49          1           0       -4.766708    0.544940   -0.261066
     50          1           0       -6.167690   -2.718755   -2.718541
     51          1           0       -1.929287   -1.911591   -2.414561
     52         17           0        1.479455    0.858007   -3.818372
     53         17           0       -1.834623    0.960973   -3.598357
     54         46           0       -0.068129    0.420663   -2.091263
     55          6           0        3.054281   -1.123199    2.486049
     56          1           0        0.272556   -0.089063    4.027971
     57          1           0       -1.467456   -2.159009    3.999444
     58          6           0       -3.213777   -2.386160    1.691610
     59          1           0        2.851616   -0.037258    2.419299
     60          7           0        4.385520   -1.293355    1.834383
     61          6           0        5.460471   -0.688554    2.626678
     62          6           0        4.757627   -2.658258    1.460692
     63          1           0        6.355066   -0.577474    1.990325
     64          1           0        5.159635    0.307474    2.982967
     65          1           0        5.735389   -1.296163    3.516683
     66          1           0        5.604171   -2.616975    0.755743
     67          1           0        5.072616   -3.282160    2.327071
     68          1           0        3.922300   -3.162325    0.952114
     69          6           0        3.019812   -1.925818    6.770467
     70          6           0        3.270328   -2.975478    5.875189
     71          6           0        3.271789   -2.743842    4.492435
     72          6           0        3.017667   -1.455949    3.977150
     73          6           0        2.801637   -0.406769    4.891513
     74          6           0        2.791218   -0.635025    6.273952
     75          1           0        3.016012   -2.110959    7.849236
     76          1           0        3.469213   -3.983372    6.254225
     77          1           0        3.477850   -3.575783    3.813476
     78          1           0        2.658189    0.611385    4.507758
     79          1           0        2.614432    0.197439    6.962814
     80          7           0       -4.197248   -2.242846    2.796750
     81          1           0       -3.674848   -2.104022    0.722974
     82          6           0       -5.379116   -3.075719    2.534842
     83          6           0       -4.631710   -0.854416    2.977173
     84          1           0       -5.925136   -2.769414    1.613836
     85          1           0       -5.085927   -4.131617    2.435942
     86          1           0       -6.071468   -2.985235    3.388552
     87          1           0       -5.140420   -0.431856    2.079583
     88          1           0       -5.349613   -0.814346    3.813328
     89          1           0       -3.776912   -0.213126    3.242327
     90          6           0       -1.874469   -6.501818    1.265752
     91          6           0       -1.910972   -5.905088    2.537458
     92          6           0       -2.361218   -4.586943    2.688743
     93          6           0       -2.769773   -3.840882    1.567739
     94          6           0       -2.761919   -4.456424    0.306568
     95          6           0       -2.313788   -5.775784    0.149466
     96          1           0       -1.520942   -7.531523    1.150966
     97          1           0       -2.427860   -4.137168    3.683810
     98          1           0       -3.114784   -3.900388   -0.564539
     99          6           0       -4.370944    3.582347    2.731711
    100          9           0       -5.189992    4.663309    2.760092
    101          9           0       -5.117492    2.483474    3.045537
    102          9           0       -3.455468    3.734297    3.728636
    103          6           0       -2.723660    5.490889   -1.627464
    104          9           0       -1.881178    5.236235   -2.654072
    105          9           0       -3.928954    5.846191   -2.152076
    106          9           0       -2.250064    6.576641   -0.952020
    107          6           0       -7.009037   -0.713219   -1.034654
    108          9           0       -7.936919   -1.375174   -1.768277
    109          9           0       -7.228050   -1.026835    0.280477
    110          9           0       -7.241634    0.618957   -1.159783
    111          6           0       -3.724771   -3.629018   -3.529631
    112          9           0       -3.690418   -4.793842   -2.804310
    113          9           0       -4.684079   -3.786266   -4.475490
    114          9           0       -2.527249   -3.513111   -4.151069
    115          6           0        6.262679    1.096429   -3.451835
    116          9           0        6.186578    2.282999   -2.789432
    117          9           0        7.569920    0.715003   -3.468833
    118          9           0        5.891000    1.324919   -4.737201
    119          6           0        5.339038   -3.714150   -2.308909
    120          9           0        6.258576   -3.939749   -1.319292
    121          9           0        4.299038   -4.560191   -2.084858
    122          9           0        5.928269   -4.071987   -3.478363
    123          6           0        5.122338    3.059203    2.065633
    124          9           0        6.119845    2.324835    1.511625
    125          9           0        5.524388    4.353737    2.103578
    126          9           0        4.988981    2.644521    3.365734
    127          6           0        0.681370    4.924393    0.553357
    128          9           0        1.181833    6.099869    1.005275
    129          9           0        0.241146    5.112598   -0.717943
    130          9           0       -0.408670    4.618543    1.317080
    131          1           0       -1.594620   -6.474253    3.418098
    132          1           0       -2.318667   -6.228983   -0.846966
    133          1           0       -0.198581   -4.313911    0.932196
    134          1           0        1.398637   -3.565627    2.972162
 ---------------------------------------------------------------------

 SCF Done:  E(RPBE1PBE) =  -6669.04765730     A.U. after    8 cycles

 The electronic state is 1-A.
 Alpha  occ. eigenvalues -- -101.64499-101.64189 -77.30132 -77.30050 -24.83135
 Alpha  occ. eigenvalues --  -24.83077 -24.82976 -24.82810 -24.82641 -24.82589
 Alpha  occ. eigenvalues --  -24.82495 -24.82432 -24.82311 -24.82261 -24.82241
 Alpha  occ. eigenvalues --  -24.82234 -24.82171 -24.82115 -24.82010 -24.82006
 Alpha  occ. eigenvalues --  -24.81847 -24.81600 -24.81322 -24.81296 -24.81179
 Alpha  occ. eigenvalues --  -24.80946 -24.80875 -24.80823 -14.41237 -14.40566
 Alpha  occ. eigenvalues --  -10.50828 -10.50555 -10.50148 -10.50030 -10.50017
 Alpha  occ. eigenvalues --  -10.49615 -10.48971 -10.48894 -10.30636 -10.30494
 Alpha  occ. eigenvalues --  -10.30397 -10.30099 -10.29986 -10.29887 -10.29864
 Alpha  occ. eigenvalues --  -10.29801 -10.29795 -10.29782 -10.29524 -10.29453
 Alpha  occ. eigenvalues --  -10.29401 -10.29338 -10.29325 -10.29289 -10.29242
 Alpha  occ. eigenvalues --  -10.29232 -10.29188 -10.29157 -10.29115 -10.28939
 Alpha  occ. eigenvalues --  -10.28935 -10.28921 -10.28921 -10.28753 -10.28395
 Alpha  occ. eigenvalues --  -10.28340 -10.28266 -10.28226 -10.28095 -10.28039
 Alpha  occ. eigenvalues --  -10.27631 -10.27354 -10.27246 -10.27206 -10.26708
 Alpha  occ. eigenvalues --  -10.26216 -10.25815 -10.25794 -10.25768 -10.25757
 Alpha  occ. eigenvalues --  -10.25726 -10.25654 -10.25626 -10.25591 -10.25446
 Alpha  occ. eigenvalues --  -10.25279 -10.25208 -10.25123 -10.25037 -10.24943
 Alpha  occ. eigenvalues --   -9.47016  -9.46685  -7.20219  -7.19915  -7.19736
 Alpha  occ. eigenvalues --   -7.19685  -7.19401  -7.19333  -6.69243  -6.69189
 Alpha  occ. eigenvalues --   -4.82844  -4.82826  -4.82787  -4.82770  -4.82573
 Alpha  occ. eigenvalues --   -4.82527  -3.64756  -3.55044  -2.29265  -2.25102
 Alpha  occ. eigenvalues --   -2.25037  -2.22829  -2.22521  -2.19374  -1.36625
 Alpha  occ. eigenvalues --   -1.36349  -1.35956  -1.35836  -1.35810  -1.35460
 Alpha  occ. eigenvalues --   -1.34798  -1.34690  -1.28389  -1.28100  -1.27903
 Alpha  occ. eigenvalues --   -1.27764  -1.27664  -1.27593  -1.27576  -1.27271
 Alpha  occ. eigenvalues --   -1.27170  -1.27161  -1.27052  -1.26699  -1.26499
 Alpha  occ. eigenvalues --   -1.26401  -1.26128  -1.25989  -0.98028  -0.97641
 Alpha  occ. eigenvalues --   -0.95675  -0.95409  -0.94836  -0.94262  -0.93916
 Alpha  occ. eigenvalues --   -0.93664  -0.90472  -0.90128  -0.86777  -0.86188
 Alpha  occ. eigenvalues --   -0.86149  -0.85875  -0.85544  -0.85191  -0.83455
 Alpha  occ. eigenvalues --   -0.83394  -0.82862  -0.82403  -0.79460  -0.79050
 Alpha  occ. eigenvalues --   -0.78930  -0.78717  -0.78277  -0.78105  -0.77429
 Alpha  occ. eigenvalues --   -0.76745  -0.76424  -0.76086  -0.76017  -0.75571
 Alpha  occ. eigenvalues --   -0.75338  -0.75269  -0.74624  -0.74577  -0.74294
 Alpha  occ. eigenvalues --   -0.73532  -0.73105  -0.72676  -0.71958  -0.71786
 Alpha  occ. eigenvalues --   -0.69077  -0.68505  -0.68443  -0.68133  -0.67762
 Alpha  occ. eigenvalues --   -0.67552  -0.66472  -0.66398  -0.65475  -0.65378
 Alpha  occ. eigenvalues --   -0.65097  -0.64138  -0.63907  -0.63804  -0.63579
 Alpha  occ. eigenvalues --   -0.63530  -0.63348  -0.63241  -0.62880  -0.62874
 Alpha  occ. eigenvalues --   -0.62814  -0.62800  -0.62764  -0.62560  -0.62414
 Alpha  occ. eigenvalues --   -0.62390  -0.62385  -0.62080  -0.61823  -0.61709
 Alpha  occ. eigenvalues --   -0.61599  -0.61390  -0.60765  -0.60615  -0.59949
 Alpha  occ. eigenvalues --   -0.59886  -0.58102  -0.57525  -0.57145  -0.57067
 Alpha  occ. eigenvalues --   -0.56762  -0.56620  -0.56497  -0.55936  -0.55415
 Alpha  occ. eigenvalues --   -0.55252  -0.55128  -0.54922  -0.54486  -0.54022
 Alpha  occ. eigenvalues --   -0.53888  -0.53335  -0.52681  -0.52504  -0.52208
 Alpha  occ. eigenvalues --   -0.51637  -0.51490  -0.51370  -0.51148  -0.51122
 Alpha  occ. eigenvalues --   -0.50888  -0.50789  -0.50679  -0.50620  -0.50613
 Alpha  occ. eigenvalues --   -0.50416  -0.50346  -0.50290  -0.50158  -0.50047
 Alpha  occ. eigenvalues --   -0.49625  -0.49357  -0.49233  -0.49195  -0.49142
 Alpha  occ. eigenvalues --   -0.48845  -0.48769  -0.48557  -0.48426  -0.48138
 Alpha  occ. eigenvalues --   -0.48119  -0.48036  -0.47699  -0.47663  -0.47436
 Alpha  occ. eigenvalues --   -0.47335  -0.47236  -0.47196  -0.47046  -0.46964
 Alpha  occ. eigenvalues --   -0.46876  -0.46785  -0.46617  -0.46578  -0.46475
 Alpha  occ. eigenvalues --   -0.46228  -0.46174  -0.46034  -0.45992  -0.45948
 Alpha  occ. eigenvalues --   -0.45840  -0.45804  -0.45684  -0.45619  -0.45486
 Alpha  occ. eigenvalues --   -0.45375  -0.45337  -0.45281  -0.45181  -0.45060
 Alpha  occ. eigenvalues --   -0.45026  -0.45010  -0.44897  -0.44762  -0.44693
 Alpha  occ. eigenvalues --   -0.44661  -0.44640  -0.44390  -0.44349  -0.44219
 Alpha  occ. eigenvalues --   -0.44057  -0.43973  -0.43745  -0.43686  -0.43621
 Alpha  occ. eigenvalues --   -0.43402  -0.43121  -0.42949  -0.42705  -0.42407
 Alpha  occ. eigenvalues --   -0.42199  -0.41596  -0.41462  -0.41152  -0.41125
 Alpha  occ. eigenvalues --   -0.40805  -0.40725  -0.40508  -0.40442  -0.40387
 Alpha  occ. eigenvalues --   -0.40116  -0.39958  -0.39952  -0.39679  -0.39595
 Alpha  occ. eigenvalues --   -0.39509  -0.39369  -0.39009  -0.38932  -0.38265
 Alpha  occ. eigenvalues --   -0.38009  -0.37608  -0.37273  -0.37060  -0.36817
 Alpha  occ. eigenvalues --   -0.34640  -0.34452  -0.34079  -0.33435  -0.33345
 Alpha  occ. eigenvalues --   -0.32991  -0.32929  -0.32598  -0.32309  -0.31918
 Alpha  occ. eigenvalues --   -0.31713  -0.31501  -0.31383  -0.30490  -0.30111
 Alpha  occ. eigenvalues --   -0.29824  -0.29455  -0.29259  -0.28964  -0.28878
 Alpha  occ. eigenvalues --   -0.28627  -0.27882  -0.27650  -0.27130  -0.26774
 Alpha  occ. eigenvalues --   -0.26623  -0.26533  -0.26087  -0.25577  -0.25449
 Alpha virt. eigenvalues --   -0.10634  -0.09041  -0.08743  -0.08341  -0.08126
 Alpha virt. eigenvalues --   -0.07227  -0.06965  -0.06410  -0.06146  -0.04562
 Alpha virt. eigenvalues --   -0.04423  -0.03968  -0.03740  -0.03674  -0.03485

 Mulliken charges:
               1
     1  Fe  -1.248605
     2  P    0.260758
     3  P    0.085801
     4  C    0.229845
     5  C   -0.190004
     6  C    0.050629
     7  C   -0.103885
     8  C    0.376939
     9  C    0.345376
    10  C    0.379502
    11  C   -0.104247
    12  C   -0.003741
    13  C   -0.165740
    14  C    0.177818
    15  C   -0.325957
    16  C    0.156783
    17  C   -0.292419
    18  C    0.086072
    19  C   -0.260781
    20  C   -0.092949
    21  C   -0.287551
    22  C    0.110275
    23  C   -0.251553
    24  C    0.065482
    25  C   -0.147468
    26  C    0.099480
    27  C   -0.183173
    28  C    0.071563
    29  C   -0.279784
    30  C    0.146332
    31  C   -0.303292
    32  C    0.160814
    33  C   -0.242505
    34  C    0.111467
    35  C   -0.238271
    36  C    0.199186
    37  C   -0.367391
    38  H    0.121563
    39  H    0.153171
    40  H    0.175705
    41  H    0.165474
    42  H    0.201970
    43  H    0.257154
    44  H    0.177570
    45  H    0.285237
    46  H    0.128637
    47  H    0.161737
    48  H    0.231815
    49  H    0.178042
    50  H    0.172236
    51  H    0.202919
    52  Cl  -0.385024
    53  Cl  -0.373996
    54  Pd   0.001624
    55  C   -0.027627
    56  H    0.124261
    57  H    0.115113
    58  C    0.000029
    59  H    0.128332
    60  N   -0.138578
    61  C   -0.327706
    62  C   -0.350614
    63  H    0.142487
    64  H    0.147448
    65  H    0.130981
    66  H    0.148505
    67  H    0.118561
    68  H    0.141516
    69  C   -0.125752
    70  C   -0.120038
    71  C   -0.315701
    72  C    0.094667
    73  C   -0.267960
    74  C   -0.111697
    75  H    0.126056
    76  H    0.125719
    77  H    0.169984
    78  H    0.142886
    79  H    0.126789
    80  N   -0.068177
    81  H    0.020592
    82  C   -0.327026
    83  C   -0.350568
    84  H    0.113305
    85  H    0.154419
    86  H    0.131019
    87  H    0.103281
    88  H    0.139241
    89  H    0.155277
    90  C   -0.092853
    91  C   -0.147270
    92  C   -0.156070
    93  C   -0.084408
    94  C   -0.123184
    95  C   -0.181368
    96  H    0.125377
    97  H    0.133518
    98  H    0.103748
    99  C    0.429833
   100  F   -0.156341
   101  F   -0.161586
   102  F   -0.157838
   103  C    0.456714
   104  F   -0.151469
   105  F   -0.158455
   106  F   -0.167694
   107  C    0.432776
   108  F   -0.155468
   109  F   -0.158174
   110  F   -0.153618
   111  C    0.437086
   112  F   -0.162923
   113  F   -0.154735
   114  F   -0.150089
   115  C    0.434942
   116  F   -0.165066
   117  F   -0.164905
   118  F   -0.146799
   119  C    0.447077
   120  F   -0.165753
   121  F   -0.164767
   122  F   -0.157120
   123  C    0.445602
   124  F   -0.155190
   125  F   -0.153692
   126  F   -0.167224
   127  C    0.443223
   128  F   -0.154451
   129  F   -0.154908
   130  F   -0.164613
   131  H    0.122034
   132  H    0.130209
   133  H    0.150610
   134  H    0.145616
 Sum of Mulliken charges =  -0.00000

 Dipole moment (field-independent basis, Debye):
    X=              0.7771    Y=             -6.0189    Z=             12.0088  Tot=             13.4552
 Quadrupole moment (field-independent basis, Debye-Ang):
   XX=           -590.5637   YY=           -570.7096   ZZ=           -593.6867
   XY=              5.0243   XZ=             13.0794   YZ=             -2.4547

 Summary of Natural Population Analysis:

                                       Natural Population
                Natural  -----------------------------------------------
    Atom  No    Charge         Core      Valence    Rydberg      Total
 -----------------------------------------------------------------------
     Fe    1   -0.29503     17.99000     8.26083    0.04420    26.29503
      P    2    1.23493      9.99550     3.71525    0.05432    13.76507
      P    3    1.20563      9.99564     3.74377    0.05495    13.79437
      C    4   -0.37900      1.99838     4.33564    0.04499     6.37900
      C    5   -0.19000      1.99865     4.16825    0.02310     6.19000
      C    6   -0.18069      1.99880     4.15750    0.02439     6.18069
      C    7   -0.20429      1.99868     4.18305    0.02256     6.20429
      C    8    0.02389      1.99857     3.93974    0.03779     5.97611
      C    9   -0.37909      1.99841     4.33543    0.04524     6.37909
      C   10    0.03126      1.99860     3.93279    0.03735     5.96874
      C   11   -0.19691      1.99868     4.17507    0.02316     6.19691
      C   12   -0.18672      1.99877     4.16450    0.02345     6.18672
      C   13   -0.19919      1.99864     4.17630    0.02424     6.19919
      C   14   -0.33197      1.99900     4.29701    0.03596     6.33197
      C   15   -0.12283      1.99903     4.10520    0.01860     6.12283
      C   16   -0.15026      1.99897     4.12654    0.02475     6.15026
      C   17   -0.13480      1.99907     4.11970    0.01603     6.13480
      C   18   -0.15410      1.99897     4.13014    0.02499     6.15410
      C   19   -0.15057      1.99901     4.13176    0.01980     6.15057
      C   20   -0.35647      1.99899     4.32436    0.03311     6.35647
      C   21   -0.16417      1.99903     4.14352    0.02163     6.16417
      C   22   -0.15258      1.99897     4.12902    0.02459     6.15258
      C   23   -0.13258      1.99907     4.11734    0.01617     6.13258
      C   24   -0.14775      1.99896     4.12429    0.02450     6.14775
      C   25   -0.14506      1.99903     4.12722    0.01882     6.14506
      C   26   -0.35497      1.99901     4.32161    0.03436     6.35497
      C   27   -0.16941      1.99902     4.14984    0.02054     6.16941
      C   28   -0.15190      1.99896     4.12780    0.02513     6.15190
      C   29   -0.12590      1.99906     4.11091    0.01593     6.12590
      C   30   -0.13444      1.99898     4.11081    0.02466     6.13444
      C   31   -0.14796      1.99904     4.13010    0.01883     6.14796
      C   32   -0.33302      1.99900     4.29806    0.03597     6.33302
      C   33   -0.15969      1.99900     4.14029    0.02039     6.15969
      C   34   -0.14604      1.99897     4.12191    0.02516     6.14604
      C   35   -0.13821      1.99907     4.12309    0.01606     6.13821
      C   36   -0.15237      1.99897     4.12757    0.02584     6.15237
      C   37   -0.12953      1.99901     4.11331    0.01721     6.12953
      H   38    0.26008      0.00000     0.73762    0.00230     0.73992
      H   39    0.25821      0.00000     0.73964    0.00214     0.74179
      H   40    0.25654      0.00000     0.74190    0.00156     0.74346
      H   41    0.25425      0.00000     0.74444    0.00132     0.74575
      H   42    0.24839      0.00000     0.74944    0.00216     0.75161
      H   43    0.27865      0.00000     0.71874    0.00261     0.72135
      H   44    0.26077      0.00000     0.73794    0.00129     0.73923
      H   45    0.25604      0.00000     0.74185    0.00210     0.74396
      H   46    0.24962      0.00000     0.74771    0.00267     0.75038
      H   47    0.25570      0.00000     0.74295    0.00135     0.74430
      H   48    0.28502      0.00000     0.71342    0.00157     0.71498
      H   49    0.24760      0.00000     0.75017    0.00223     0.75240
      H   50    0.25897      0.00000     0.73969    0.00134     0.74103
      H   51    0.25614      0.00000     0.74251    0.00136     0.74386
     Cl   52   -0.35929      9.99962     7.35062    0.00904    17.35929
     Cl   53   -0.38837      9.99962     7.38060    0.00815    17.38837
     Pd   54   -0.20878     35.98927    10.19230    0.02721    46.20878
      C   55   -0.09785      1.99908     4.07313    0.02563     6.09785
      H   56    0.26262      0.00000     0.73510    0.00228     0.73738
      H   57    0.26251      0.00000     0.73590    0.00159     0.73749
      C   58   -0.11269      1.99909     4.08828    0.02533     6.11269
      H   59    0.22018      0.00000     0.77675    0.00306     0.77982
      N   60   -0.42736      1.99957     5.40178    0.02601     7.42736
      C   61   -0.43894      1.99941     4.42649    0.01305     6.43894
      C   62   -0.43510      1.99939     4.42206    0.01366     6.43510
      H   63    0.21276      0.00000     0.78583    0.00141     0.78724
      H   64    0.21170      0.00000     0.78723    0.00107     0.78830
      H   65    0.18532      0.00000     0.81149    0.00318     0.81468
      H   66    0.22004      0.00000     0.77864    0.00133     0.77996
      H   67    0.17633      0.00000     0.82122    0.00245     0.82367
      H   68    0.21120      0.00000     0.78723    0.00157     0.78880
      C   69   -0.21260      1.99922     4.19560    0.01779     6.21260
      C   70   -0.20441      1.99922     4.18735    0.01783     6.20441
      C   71   -0.23231      1.99909     4.21412    0.01910     6.23231
      C   72   -0.02983      1.99905     4.00953    0.02124     6.02983
      C   73   -0.22323      1.99912     4.20575    0.01836     6.22323
      C   74   -0.20530      1.99921     4.18863    0.01746     6.20530
      H   75    0.22328      0.00000     0.77559    0.00113     0.77672
      H   76    0.22220      0.00000     0.77664    0.00116     0.77780
      H   77    0.22182      0.00000     0.77612    0.00206     0.77818
      H   78    0.21612      0.00000     0.78239    0.00150     0.78388
      H   79    0.22372      0.00000     0.77510    0.00118     0.77628
      N   80   -0.41208      1.99956     5.38584    0.02667     7.41208
      H   81    0.20858      0.00000     0.78680    0.00462     0.79142
      C   82   -0.43293      1.99940     4.42341    0.01012     6.43293
      C   83   -0.42988      1.99940     4.41724    0.01324     6.42988
      H   84    0.17975      0.00000     0.81764    0.00262     0.82025
      H   85    0.21646      0.00000     0.78224    0.00131     0.78354
      H   86    0.20832      0.00000     0.79023    0.00144     0.79168
      H   87    0.17169      0.00000     0.82562    0.00269     0.82831
      H   88    0.21612      0.00000     0.78255    0.00133     0.78388
      H   89    0.20409      0.00000     0.79402    0.00189     0.79591
      C   90   -0.22463      1.99922     4.20758    0.01784     6.22463
      C   91   -0.21276      1.99922     4.19595    0.01759     6.21276
      C   92   -0.22434      1.99906     4.20675    0.01853     6.22434
      C   93   -0.00806      1.99906     3.98730    0.02170     6.00806
      C   94   -0.22819      1.99908     4.21028    0.01884     6.22819
      C   95   -0.21126      1.99921     4.19446    0.01759     6.21126
      H   96    0.22466      0.00000     0.77419    0.00115     0.77534
      H   97    0.22781      0.00000     0.77031    0.00188     0.77219
      H   98    0.22367      0.00000     0.77439    0.00194     0.77633
      C   99    0.95156      1.99912     3.00219    0.04713     5.04844
      F  100   -0.30588      1.99992     7.29741    0.00854     9.30588
      F  101   -0.31463      1.99993     7.30646    0.00824     9.31463
      F  102   -0.30979      1.99992     7.30160    0.00826     9.30979
      C  103    0.94970      1.99913     3.00360    0.04757     5.05030
      F  104   -0.29796      1.99992     7.28920    0.00884     9.29796
      F  105   -0.30912      1.99992     7.30091    0.00828     9.30912
      F  106   -0.31286      1.99993     7.30457    0.00837     9.31286
      C  107    0.95076      1.99912     3.00284    0.04728     5.04924
      F  108   -0.30513      1.99992     7.29661    0.00860     9.30513
      F  109   -0.31801      1.99993     7.30942    0.00867     9.31801
      F  110   -0.30539      1.99992     7.29711    0.00835     9.30539
      C  111    0.95085      1.99912     3.00268    0.04736     5.04915
      F  112   -0.32158      1.99993     7.31324    0.00840     9.32158
      F  113   -0.30440      1.99992     7.29591    0.00856     9.30440
      F  114   -0.30067      1.99992     7.29200    0.00875     9.30067
      C  115    0.95094      1.99914     3.00226    0.04766     5.04906
      F  116   -0.31174      1.99992     7.30335    0.00847     9.31174
      F  117   -0.31286      1.99993     7.30446    0.00848     9.31286
      F  118   -0.30186      1.99992     7.29342    0.00852     9.30186
      C  119    0.95175      1.99911     3.00196    0.04717     5.04825
      F  120   -0.31918      1.99993     7.31060    0.00865     9.31918
      F  121   -0.31060      1.99992     7.30237    0.00830     9.31060
      F  122   -0.30629      1.99992     7.29788    0.00848     9.30629
      C  123    0.95144      1.99912     3.00221    0.04723     5.04856
      F  124   -0.30482      1.99992     7.29606    0.00884     9.30482
      F  125   -0.30415      1.99992     7.29568    0.00856     9.30415
      F  126   -0.31905      1.99993     7.31060    0.00852     9.31905
      C  127    0.95205      1.99913     3.00055    0.04826     5.04795
      F  128   -0.30381      1.99992     7.29567    0.00822     9.30381
      F  129   -0.30293      1.99992     7.29447    0.00854     9.30293
      F  130   -0.31532      1.99993     7.30677    0.00863     9.31532
      H  131    0.22219      0.00000     0.77663    0.00118     0.77781
      H  132    0.23075      0.00000     0.76802    0.00122     0.76925
      H  133    0.27700      0.00000     0.72071    0.00229     0.72300
      H  134    0.26409      0.00000     0.73403    0.00188     0.73591
 =======================================================================
   * Total *    0.00000    265.90784   499.98923    2.10293   768.00000

 Normal termination of Gaussian 09 at Thu Dec  2 16:50:34 2021.
