 Gaussian 09, Revision E.01,

 ----------------------------------------------------------------------
 # PBE1PBE gen pseudo=read int=(grid=ultrafine) empiricaldispersion=GD3
 BJ nmr=giao
 ----------------------------------------------------------------------

 --------------
 M003_1_4 title
 --------------
 Symbolic Z-matrix:
 Charge =  0 Multiplicity = 1

 SCF Done:  E(RPBE1PBE) =  -6669.04972548     A.U. after   35 cycles

      1  Fe   Isotropic = -6391.0403   Anisotropy =  8050.0705

      2  P    Isotropic =   226.2481   Anisotropy =   107.1335

      3  P    Isotropic =   235.1626   Anisotropy =   151.8140

      4  C    Isotropic =   108.4503   Anisotropy =    87.0015

      5  C    Isotropic =   102.7375   Anisotropy =    76.2675

      6  C    Isotropic =   100.0128   Anisotropy =   107.8432

      7  C    Isotropic =   108.4339   Anisotropy =    94.2686

      8  C    Isotropic =    77.9308   Anisotropy =    94.9327

      9  C    Isotropic =   110.4360   Anisotropy =    80.0792

     10  C    Isotropic =    78.3180   Anisotropy =    96.3064

     11  C    Isotropic =   108.7809   Anisotropy =    94.6839

     12  C    Isotropic =   101.9037   Anisotropy =   105.2962

     13  C    Isotropic =   107.4391   Anisotropy =    77.7858

     14  C    Isotropic =    43.7734   Anisotropy =   173.1778

     15  C    Isotropic =    43.1299   Anisotropy =   203.9999

     16  C    Isotropic =    48.1587   Anisotropy =   159.7603

     17  C    Isotropic =    53.5404   Anisotropy =   191.7164

     18  C    Isotropic =    48.9855   Anisotropy =   157.9706

     19  C    Isotropic =    39.1659   Anisotropy =   204.8717

     20  C    Isotropic =    42.5922   Anisotropy =   184.5409

     21  C    Isotropic =    41.3618   Anisotropy =   203.2529

     22  C    Isotropic =    46.6330   Anisotropy =   162.4716

     23  C    Isotropic =    52.5094   Anisotropy =   194.0256

     24  C    Isotropic =    45.5367   Anisotropy =   161.2249

     25  C    Isotropic =    34.1490   Anisotropy =   196.1054

     26  C    Isotropic =    42.0988   Anisotropy =   181.1610

     27  C    Isotropic =    40.9359   Anisotropy =   202.2609

     28  C    Isotropic =    47.0569   Anisotropy =   161.8927

     29  C    Isotropic =    50.9437   Anisotropy =   195.9590

     30  C    Isotropic =    43.5804   Anisotropy =   167.4059

     31  C    Isotropic =    36.4412   Anisotropy =   206.8543

     32  C    Isotropic =    41.2415   Anisotropy =   190.1040

     33  C    Isotropic =    43.5806   Anisotropy =   203.5680

     34  C    Isotropic =    46.6419   Anisotropy =   162.1610

     35  C    Isotropic =    53.6931   Anisotropy =   191.6321

     36  C    Isotropic =    46.4386   Anisotropy =   162.1271

     37  C    Isotropic =    36.0380   Anisotropy =   198.8078

     38  H    Isotropic =    27.0158   Anisotropy =     6.8348

     39  H    Isotropic =    27.9926   Anisotropy =     3.5856

     40  H    Isotropic =    23.6394   Anisotropy =    18.3962

     41  H    Isotropic =    23.0993   Anisotropy =     9.7785

     42  H    Isotropic =    22.5142   Anisotropy =    14.9426

     43  H    Isotropic =    22.8427   Anisotropy =    12.7956

     44  H    Isotropic =    22.9348   Anisotropy =    10.0174

     45  H    Isotropic =    21.6610   Anisotropy =    11.3042

     46  H    Isotropic =    23.2302   Anisotropy =    15.0120

     47  H    Isotropic =    22.9237   Anisotropy =     8.9196

     48  H    Isotropic =    20.8109   Anisotropy =    17.3757

     49  H    Isotropic =    23.5152   Anisotropy =    15.2769

     50  H    Isotropic =    22.9991   Anisotropy =     9.3379

     51  H    Isotropic =    21.6501   Anisotropy =    15.3497

     52  Cl   Isotropic =   788.2974   Anisotropy =   395.1900

     53  Cl   Isotropic =   826.8375   Anisotropy =   542.4149

     54  Pd   Isotropic =  -150.2179   Anisotropy =   243.4649

     55  C    Isotropic =   116.2958   Anisotropy =    42.8118

     56  H    Isotropic =    30.4773   Anisotropy =    17.4861

     57  H    Isotropic =    27.3576   Anisotropy =     4.7308

     58  C    Isotropic =   118.8642   Anisotropy =    41.7984

     59  H    Isotropic =    28.1594   Anisotropy =    12.9027

     60  N    Isotropic =   191.2085   Anisotropy =    56.2653

     61  C    Isotropic =   137.3481   Anisotropy =    58.6670

     62  C    Isotropic =   138.4530   Anisotropy =    63.4255

     63  H    Isotropic =    29.6243   Anisotropy =    10.0618

     64  H    Isotropic =    29.8599   Anisotropy =     7.5031

     65  H    Isotropic =    31.1474   Anisotropy =     8.3381

     66  H    Isotropic =    29.6383   Anisotropy =    12.7306

     67  H    Isotropic =    30.1686   Anisotropy =     8.1202

     68  H    Isotropic =    29.4657   Anisotropy =     7.3227

     69  C    Isotropic =    52.0621   Anisotropy =   187.8802

     70  C    Isotropic =    50.3092   Anisotropy =   189.4883

     71  C    Isotropic =    52.7756   Anisotropy =   190.9022

     72  C    Isotropic =    30.8165   Anisotropy =   205.2372

     73  C    Isotropic =    51.4410   Anisotropy =   172.9490

     74  C    Isotropic =    51.3478   Anisotropy =   189.1806

     75  H    Isotropic =    24.0083   Anisotropy =     4.8823

     76  H    Isotropic =    23.8210   Anisotropy =     4.7811

     77  H    Isotropic =    23.6462   Anisotropy =    10.1035

     78  H    Isotropic =    26.8844   Anisotropy =     7.2153

     79  H    Isotropic =    24.3084   Anisotropy =     8.5864

     80  N    Isotropic =   191.3866   Anisotropy =    60.4320

     81  H    Isotropic =    29.0549   Anisotropy =    14.9894

     82  C    Isotropic =   139.5392   Anisotropy =    61.7724

     83  C    Isotropic =   141.1275   Anisotropy =    53.2710

     84  H    Isotropic =    30.2283   Anisotropy =     7.8199

     85  H    Isotropic =    29.5402   Anisotropy =     7.0166

     86  H    Isotropic =    29.5166   Anisotropy =    12.5162

     87  H    Isotropic =    29.6461   Anisotropy =     5.7234

     88  H    Isotropic =    29.3579   Anisotropy =    10.7647

     89  H    Isotropic =    29.4879   Anisotropy =     7.5863

     90  C    Isotropic =    51.6286   Anisotropy =   187.2720

     91  C    Isotropic =    50.3596   Anisotropy =   189.0209

     92  C    Isotropic =    52.5858   Anisotropy =   191.1568

     93  C    Isotropic =    30.6287   Anisotropy =   203.9309

     94  C    Isotropic =    49.3286   Anisotropy =   175.5327

     95  C    Isotropic =    50.4732   Anisotropy =   190.5415

     96  H    Isotropic =    23.7406   Anisotropy =     3.9607

     97  H    Isotropic =    23.4818   Anisotropy =    10.2177

     98  H    Isotropic =    24.0508   Anisotropy =     6.2686

     99  C    Isotropic =    48.5613   Anisotropy =    15.3973

    100  F    Isotropic =   220.9458   Anisotropy =   148.3368

    101  F    Isotropic =   248.7041   Anisotropy =   136.6617

    102  F    Isotropic =   242.3653   Anisotropy =   141.8817

    103  C    Isotropic =    49.0263   Anisotropy =    14.3245

    104  F    Isotropic =   221.0657   Anisotropy =   149.2676

    105  F    Isotropic =   240.8593   Anisotropy =   144.2974

    106  F    Isotropic =   248.8663   Anisotropy =   123.9084

    107  C    Isotropic =    48.7730   Anisotropy =    14.7643

    108  F    Isotropic =   238.9516   Anisotropy =   141.2054

    109  F    Isotropic =   252.5145   Anisotropy =   131.2396

    110  F    Isotropic =   213.9942   Anisotropy =   141.4609

    111  C    Isotropic =    48.5184   Anisotropy =    14.4400

    112  F    Isotropic =   217.2931   Anisotropy =   148.2206

    113  F    Isotropic =   246.9017   Anisotropy =   137.1560

    114  F    Isotropic =   243.4134   Anisotropy =   132.7513

    115  C    Isotropic =    48.5516   Anisotropy =    15.9569

    116  F    Isotropic =   251.9833   Anisotropy =   133.5427

    117  F    Isotropic =   218.0681   Anisotropy =   150.9628

    118  F    Isotropic =   242.8075   Anisotropy =   141.6427

    119  C    Isotropic =    48.8795   Anisotropy =    13.8673

    120  F    Isotropic =   222.6717   Anisotropy =   143.8418

    121  F    Isotropic =   244.2148   Anisotropy =   138.8134

    122  F    Isotropic =   246.8515   Anisotropy =   140.5133

    123  C    Isotropic =    49.2119   Anisotropy =    14.3860

    124  F    Isotropic =   244.7980   Anisotropy =   136.0361

    125  F    Isotropic =   248.4726   Anisotropy =   137.0132

    126  F    Isotropic =   217.4657   Anisotropy =   143.7425

    127  C    Isotropic =    49.5240   Anisotropy =    18.1765

    128  F    Isotropic =   253.9926   Anisotropy =   127.7078

    129  F    Isotropic =   220.1464   Anisotropy =   137.0877

    130  F    Isotropic =   230.1385   Anisotropy =   150.2136

    131  H    Isotropic =    23.6726   Anisotropy =     5.1462

    132  H    Isotropic =    23.6165   Anisotropy =     7.8328

    133  H    Isotropic =    29.8286   Anisotropy =    17.8944

    134  H    Isotropic =    27.4732   Anisotropy =     4.1269

 Normal termination of Gaussian 09 at Thu Dec  2 15:41:53 2021.
 Gaussian 09:  ES64L-G09RevE.01 30-Nov-2015

 ----------------------------------------------------------------------
 # PBE1PBE gen pseudo=read int=(grid=ultrafine) empiricaldispersion=GD3
 BJ pop=nbo guess=read geom=check
 ----------------------------------------------------------------------

 --------------
 M003_1_4 title
 --------------
 Structure from the checkpoint file:  "M003_1_4_SPE.chk"
 Charge =  0 Multiplicity = 1

                         Standard orientation:
 ---------------------------------------------------------------------
 Center     Atomic      Atomic             Coordinates (Angstroms)
 Number     Number       Type             X           Y           Z
 ---------------------------------------------------------------------
      1         26           0       -0.105305   -0.979990    2.115640
      2         15           0        1.819333   -0.365907   -0.659724
      3         15           0       -1.751772    0.132071   -0.632289
      4          6           0        1.465907   -1.224688    0.902571
      5          6           0        0.587444   -2.384924    0.858963
      6          6           0        0.528451   -2.951887    2.171165
      7          6           0        1.331942   -2.148201    3.034329
      8          6           0        1.945567   -1.091310    2.274345
      9          6           0       -1.615389   -0.029392    1.189125
     10          6           0       -2.159948   -0.966676    2.171130
     11          6           0       -1.624325   -0.580100    3.451467
     12          6           0       -0.803256    0.573697    3.299630
     13          6           0       -0.775127    0.912774    1.912515
     14          6           0        3.327655   -1.250622   -1.235466
     15          6           0        3.583052   -2.550904   -0.776399
     16          6           0        4.749377   -3.222238   -1.171817
     17          6           0        5.661630   -2.612321   -2.038536
     18          6           0        5.393540   -1.321376   -2.515526
     19          6           0        4.233801   -0.640501   -2.125456
     20          6           0        2.425725    1.342574   -0.320960
     21          6           0        3.763866    1.631538    0.006878
     22          6           0        4.147582    2.946246    0.303106
     23          6           0        3.208025    3.987491    0.286669
     24          6           0        1.882256    3.702521   -0.058332
     25          6           0        1.499035    2.393052   -0.385537
     26          6           0       -2.389351    1.864672   -0.721336
     27          6           0       -3.171934    2.358256    0.336914
     28          6           0       -3.642141    3.677255    0.312767
     29          6           0       -3.324149    4.521679   -0.757036
     30          6           0       -2.542107    4.028386   -1.810288
     31          6           0       -2.076560    2.706789   -1.803305
     32          6           0       -3.154190   -0.939736   -1.146860
     33          6           0       -4.489183   -0.536423   -1.020261
     34          6           0       -5.519898   -1.406932   -1.407423
     35          6           0       -5.227271   -2.671048   -1.931437
     36          6           0       -3.887306   -3.057259   -2.084453
     37          6           0       -2.853640   -2.196655   -1.699602
     38          1           0        0.047215   -2.731163   -0.023879
     39          1           0       -0.226724    1.747100    1.477476
     40          1           0        2.885774   -3.048065   -0.098257
     41          1           0        6.574955   -3.132231   -2.336615
     42          1           0        4.044463    0.363824   -2.507817
     43          1           0        4.516829    0.839449    0.026134
     44          1           0        3.508507    5.007614    0.536131
     45          1           0        0.472299    2.187811   -0.704103
     46          1           0       -3.410437    1.722466    1.192499
     47          1           0       -3.674605    5.556919   -0.766831
     48          1           0       -1.482234    2.326236   -2.639275
     49          1           0       -4.738946    0.457379   -0.639119
     50          1           0       -6.033319   -3.336849   -2.247397
     51          1           0       -1.810456   -2.477593   -1.874114
     52         17           0        1.629885   -0.250451   -3.824482
     53         17           0       -1.670501    0.045286   -3.754291
     54         46           0        0.022880   -0.185418   -2.092676
     55          6           0        3.012338   -0.159718    2.829546
     56          1           0       -0.238252    1.067100    4.087615
     57          1           0       -1.813889   -1.114228    4.381212
     58          6           0       -3.250328   -2.021516    2.037672
     59          1           0        3.399118    0.444012    1.981052
     60          7           0        4.111455   -0.955636    3.423234
     61          6           0        4.645400   -1.938641    2.478488
     62          6           0        5.197975   -0.067735    3.855547
     63          1           0        5.465548   -2.492991    2.963091
     64          1           0        3.870658   -2.665214    2.193381
     65          1           0        5.051792   -1.475942    1.547179
     66          1           0        6.006863   -0.679938    4.286871
     67          1           0        5.622605    0.534226    3.018643
     68          1           0        4.838312    0.629011    4.627687
     69          6           0        1.318818    2.657259    5.672001
     70          6           0        1.628177    1.349179    6.080290
     71          6           0        2.190990    0.440022    5.174213
     72          6           0        2.447956    0.826157    3.846392
     73          6           0        2.159902    2.143064    3.452515
     74          6           0        1.592132    3.053767    4.354597
     75          1           0        0.875696    3.364768    6.380026
     76          1           0        1.433124    1.037333    7.111748
     77          1           0        2.461903   -0.571389    5.493401
     78          1           0        2.372945    2.455747    2.426379
     79          1           0        1.365583    4.073726    4.026553
     80          7           0       -4.371913   -1.666552    2.946641
     81          1           0       -3.591901   -2.036438    0.983198
     82          6           0       -5.490925   -2.598795    2.756683
     83          6           0       -4.860156   -0.298293    2.746671
     84          1           0       -5.928773   -2.542703    1.734158
     85          1           0       -5.160649   -3.631873    2.942569
     86          1           0       -6.285150   -2.351659    3.481003
     87          1           0       -5.287050   -0.126071    1.732435
     88          1           0       -5.661553   -0.102285    3.478788
     89          1           0       -4.056416    0.431464    2.929719
     90          6           0       -1.711637   -5.994860    2.903595
     91          6           0       -2.009295   -5.113809    3.956892
     92          6           0       -2.525340   -3.838762    3.688802
     93          6           0       -2.739374   -3.422368    2.362021
     94          6           0       -2.467949   -4.319723    1.317396
     95          6           0       -1.954113   -5.597313    1.580720
     96          1           0       -1.309238   -6.990544    3.115999
     97          1           0       -2.796717   -3.165101    4.507352
     98          1           0       -2.673255   -4.022637    0.286267
     99          6           0       -4.419110    4.191814    1.499969
    100          9           0       -3.582406    4.630321    2.481477
    101          9           0       -5.230438    5.226959    1.164955
    102          9           0       -5.193480    3.211581    2.046657
    103          6           0       -2.231693    4.931535   -2.983289
    104          9           0       -3.273371    4.969193   -3.857248
    105          9           0       -2.009377    6.210064   -2.568478
    106          9           0       -1.136509    4.517116   -3.664549
    107          6           0       -6.950456   -0.970855   -1.203231
    108          9           0       -7.130007    0.326505   -1.562148
    109          9           0       -7.823665   -1.730016   -1.909909
    110          9           0       -7.304589   -1.066839    0.116132
    111          6           0       -3.546975   -4.419940   -2.641462
    112          9           0       -3.391138   -5.336512   -1.633366
    113          9           0       -4.525609   -4.890292   -3.454172
    114          9           0       -2.385714   -4.400333   -3.339009
    115          6           0        5.050409   -4.566322   -0.558273
    116          9           0        5.955154   -5.270183   -1.283270
    117          9           0        5.566417   -4.419758    0.701014
    118          9           0        3.927354   -5.323355   -0.435243
    119          6           0        6.336234   -0.670573   -3.501145
    120          9           0        5.964392   -0.922399   -4.781697
    121          9           0        6.361860    0.680435   -3.341803
    122          9           0        7.608805   -1.130284   -3.348778
    123          6           0        5.563508    3.210279    0.758277
    124          9           0        6.447185    2.379646    0.148334
    125          9           0        5.943157    4.489070    0.513648
    126          9           0        5.678469    3.002685    2.103776
    127          6           0        0.830708    4.785988   -0.091258
    128          9           0        1.269335    5.941238    0.466777
    129          9           0        0.436481    5.057853   -1.361459
    130          9           0       -0.282176    4.389026    0.598398
    131          1           0       -1.845969   -5.425968    4.993888
    132          1           0       -1.756952   -6.280936    0.748550
    133          1           0       -0.084344   -3.798964    2.472540
    134          1           0        1.449549   -2.282751    4.109130
 ---------------------------------------------------------------------

 SCF Done:  E(RPBE1PBE) =  -6669.04972551     A.U. after    5 cycles

 The electronic state is 1-A.
 Alpha  occ. eigenvalues -- -101.64594-101.64441 -77.30429 -77.30185 -24.83516
 Alpha  occ. eigenvalues --  -24.83194 -24.83189 -24.83160 -24.82935 -24.82759
 Alpha  occ. eigenvalues --  -24.82557 -24.82400 -24.82353 -24.82295 -24.82285
 Alpha  occ. eigenvalues --  -24.82283 -24.82152 -24.82144 -24.82055 -24.81998
 Alpha  occ. eigenvalues --  -24.81971 -24.81785 -24.81570 -24.81516 -24.81230
 Alpha  occ. eigenvalues --  -24.81218 -24.81070 -24.80945 -14.40803 -14.40499
 Alpha  occ. eigenvalues --  -10.51076 -10.50912 -10.50118 -10.50038 -10.49990
 Alpha  occ. eigenvalues --  -10.49845 -10.49236 -10.49031 -10.31012 -10.30978
 Alpha  occ. eigenvalues --  -10.30923 -10.30507 -10.30499 -10.30344 -10.29872
 Alpha  occ. eigenvalues --  -10.29793 -10.29789 -10.29601 -10.29590 -10.29541
 Alpha  occ. eigenvalues --  -10.29494 -10.29287 -10.29286 -10.29243 -10.29235
 Alpha  occ. eigenvalues --  -10.29206 -10.29206 -10.29192 -10.29154 -10.29149
 Alpha  occ. eigenvalues --  -10.29042 -10.29034 -10.29015 -10.28963 -10.28813
 Alpha  occ. eigenvalues --  -10.28784 -10.28712 -10.28379 -10.27909 -10.27597
 Alpha  occ. eigenvalues --  -10.27146 -10.27095 -10.26923 -10.26836 -10.26516
 Alpha  occ. eigenvalues --  -10.26128 -10.25668 -10.25652 -10.25605 -10.25561
 Alpha  occ. eigenvalues --  -10.25505 -10.25469 -10.25349 -10.25343 -10.25316
 Alpha  occ. eigenvalues --  -10.25207 -10.25148 -10.25017 -10.24990 -10.24918
 Alpha  occ. eigenvalues --   -9.47111  -9.46941  -7.20319  -7.20164  -7.19826
 Alpha  occ. eigenvalues --   -7.19779  -7.19656  -7.19598  -6.69557  -6.69301
 Alpha  occ. eigenvalues --   -4.83164  -4.83136  -4.82898  -4.82890  -4.82885
 Alpha  occ. eigenvalues --   -4.82638  -3.64452  -3.55257  -2.28995  -2.24774
 Alpha  occ. eigenvalues --   -2.24695  -2.23064  -2.22735  -2.19572  -1.36846
 Alpha  occ. eigenvalues --   -1.36682  -1.35923  -1.35855  -1.35771  -1.35672
 Alpha  occ. eigenvalues --   -1.35047  -1.34823  -1.28606  -1.28463  -1.28151
 Alpha  occ. eigenvalues --   -1.27934  -1.27723  -1.27592  -1.27534  -1.27483
 Alpha  occ. eigenvalues --   -1.27186  -1.27146  -1.27024  -1.26910  -1.26740
 Alpha  occ. eigenvalues --   -1.26492  -1.26381  -1.26163  -0.98018  -0.97556
 Alpha  occ. eigenvalues --   -0.95987  -0.95377  -0.94816  -0.94334  -0.94221
 Alpha  occ. eigenvalues --   -0.93561  -0.90418  -0.90045  -0.87247  -0.86567
 Alpha  occ. eigenvalues --   -0.86119  -0.85896  -0.85639  -0.85581  -0.83807
 Alpha  occ. eigenvalues --   -0.83502  -0.82617  -0.82287  -0.79222  -0.78911
 Alpha  occ. eigenvalues --   -0.78824  -0.78518  -0.78222  -0.77863  -0.77583
 Alpha  occ. eigenvalues --   -0.77100  -0.76657  -0.76388  -0.76052  -0.75636
 Alpha  occ. eigenvalues --   -0.75592  -0.75321  -0.74743  -0.74708  -0.73684
 Alpha  occ. eigenvalues --   -0.73505  -0.72950  -0.72531  -0.72009  -0.71680
 Alpha  occ. eigenvalues --   -0.69457  -0.68831  -0.68493  -0.68142  -0.67864
 Alpha  occ. eigenvalues --   -0.67833  -0.66784  -0.66438  -0.65665  -0.65331
 Alpha  occ. eigenvalues --   -0.64403  -0.64203  -0.64086  -0.64044  -0.63866
 Alpha  occ. eigenvalues --   -0.63598  -0.63480  -0.63198  -0.63045  -0.62914
 Alpha  occ. eigenvalues --   -0.62852  -0.62812  -0.62715  -0.62698  -0.62610
 Alpha  occ. eigenvalues --   -0.62460  -0.62385  -0.61985  -0.61960  -0.61931
 Alpha  occ. eigenvalues --   -0.61737  -0.61427  -0.60724  -0.60578  -0.59851
 Alpha  occ. eigenvalues --   -0.59778  -0.58470  -0.57521  -0.57295  -0.57106
 Alpha  occ. eigenvalues --   -0.57020  -0.56839  -0.56404  -0.55959  -0.55529
 Alpha  occ. eigenvalues --   -0.55379  -0.55321  -0.54835  -0.54488  -0.54371
 Alpha  occ. eigenvalues --   -0.53991  -0.53352  -0.52756  -0.52652  -0.51864
 Alpha  occ. eigenvalues --   -0.51737  -0.51577  -0.51516  -0.51360  -0.51205
 Alpha  occ. eigenvalues --   -0.50899  -0.50742  -0.50646  -0.50632  -0.50549
 Alpha  occ. eigenvalues --   -0.50461  -0.50376  -0.50324  -0.50299  -0.50104
 Alpha  occ. eigenvalues --   -0.49871  -0.49541  -0.49454  -0.49282  -0.49231
 Alpha  occ. eigenvalues --   -0.48895  -0.48632  -0.48489  -0.48315  -0.48153
 Alpha  occ. eigenvalues --   -0.47953  -0.47868  -0.47837  -0.47700  -0.47672
 Alpha  occ. eigenvalues --   -0.47539  -0.47292  -0.47214  -0.47154  -0.47039
 Alpha  occ. eigenvalues --   -0.46897  -0.46881  -0.46696  -0.46578  -0.46556
 Alpha  occ. eigenvalues --   -0.46494  -0.46388  -0.46257  -0.46238  -0.46069
 Alpha  occ. eigenvalues --   -0.45970  -0.45895  -0.45738  -0.45648  -0.45638
 Alpha  occ. eigenvalues --   -0.45585  -0.45331  -0.45241  -0.45149  -0.45083
 Alpha  occ. eigenvalues --   -0.45018  -0.45002  -0.44929  -0.44839  -0.44775
 Alpha  occ. eigenvalues --   -0.44708  -0.44627  -0.44489  -0.44425  -0.44307
 Alpha  occ. eigenvalues --   -0.44143  -0.44036  -0.43909  -0.43762  -0.43678
 Alpha  occ. eigenvalues --   -0.43489  -0.43034  -0.42945  -0.42714  -0.42433
 Alpha  occ. eigenvalues --   -0.42244  -0.41841  -0.41648  -0.41367  -0.41129
 Alpha  occ. eigenvalues --   -0.40911  -0.40789  -0.40758  -0.40497  -0.40318
 Alpha  occ. eigenvalues --   -0.40174  -0.40025  -0.39949  -0.39807  -0.39733
 Alpha  occ. eigenvalues --   -0.39475  -0.39273  -0.38968  -0.38350  -0.37872
 Alpha  occ. eigenvalues --   -0.37485  -0.37371  -0.37211  -0.37043  -0.36899
 Alpha  occ. eigenvalues --   -0.34872  -0.34620  -0.34341  -0.33806  -0.33522
 Alpha  occ. eigenvalues --   -0.33445  -0.32815  -0.32603  -0.32293  -0.31989
 Alpha  occ. eigenvalues --   -0.31831  -0.31578  -0.31307  -0.30590  -0.30310
 Alpha  occ. eigenvalues --   -0.29721  -0.29391  -0.29200  -0.28942  -0.28796
 Alpha  occ. eigenvalues --   -0.28183  -0.27699  -0.27497  -0.27324  -0.26853
 Alpha  occ. eigenvalues --   -0.26443  -0.26221  -0.26158  -0.25765  -0.25344
 Alpha virt. eigenvalues --   -0.10976  -0.09427  -0.09008  -0.08472  -0.08059
 Alpha virt. eigenvalues --   -0.07323  -0.07120  -0.06834  -0.06568  -0.04564
 Alpha virt. eigenvalues --   -0.04339  -0.03990  -0.03626  -0.03523  -0.03391

 Mulliken charges:
               1
     1  Fe  -1.164893
     2  P    0.191056
     3  P    0.076156
     4  C    0.370628
     5  C   -0.321715
     6  C    0.062132
     7  C   -0.116903
     8  C    0.328082
     9  C    0.397227
    10  C    0.392297
    11  C   -0.063806
    12  C    0.013623
    13  C   -0.268344
    14  C    0.206514
    15  C   -0.334369
    16  C    0.139843
    17  C   -0.295874
    18  C    0.190423
    19  C   -0.407563
    20  C    0.059244
    21  C   -0.233742
    22  C    0.173094
    23  C   -0.231059
    24  C    0.043783
    25  C   -0.238584
    26  C    0.074444
    27  C   -0.209726
    28  C    0.088954
    29  C   -0.282497
    30  C    0.125721
    31  C   -0.251972
    32  C    0.147554
    33  C   -0.251594
    34  C    0.094498
    35  C   -0.245907
    36  C    0.204770
    37  C   -0.347844
    38  H    0.123325
    39  H    0.169851
    40  H    0.203781
    41  H    0.171679
    42  H    0.189335
    43  H    0.202956
    44  H    0.173488
    45  H    0.239812
    46  H    0.143658
    47  H    0.164626
    48  H    0.232451
    49  H    0.184312
    50  H    0.174189
    51  H    0.204704
    52  Cl  -0.389363
    53  Cl  -0.373746
    54  Pd   0.059778
    55  C    0.152249
    56  H    0.143883
    57  H    0.109392
    58  C   -0.031590
    59  H   -0.132161
    60  N   -0.077634
    61  C   -0.333380
    62  C   -0.318108
    63  H    0.144009
    64  H    0.136374
    65  H    0.099515
    66  H    0.133801
    67  H    0.107554
    68  H    0.154424
    69  C   -0.121329
    70  C   -0.124080
    71  C   -0.192817
    72  C   -0.059422
    73  C   -0.117887
    74  C   -0.156865
    75  H    0.126208
    76  H    0.124147
    77  H    0.138748
    78  H    0.071711
    79  H    0.122218
    80  N   -0.071618
    81  H    0.035930
    82  C   -0.329797
    83  C   -0.338561
    84  H    0.112144
    85  H    0.155213
    86  H    0.130980
    87  H    0.094514
    88  H    0.137976
    89  H    0.155720
    90  C   -0.116167
    91  C   -0.129553
    92  C   -0.177731
    93  C   -0.035384
    94  C   -0.174421
    95  C   -0.147738
    96  H    0.125377
    97  H    0.137188
    98  H    0.099698
    99  C    0.427688
   100  F   -0.157352
   101  F   -0.156952
   102  F   -0.162279
   103  C    0.458340
   104  F   -0.154206
   105  F   -0.169564
   106  F   -0.155373
   107  C    0.434932
   108  F   -0.155169
   109  F   -0.155204
   110  F   -0.156947
   111  C    0.439001
   112  F   -0.159405
   113  F   -0.155526
   114  F   -0.149212
   115  C    0.433975
   116  F   -0.156526
   117  F   -0.158974
   118  F   -0.161412
   119  C    0.435802
   120  F   -0.146254
   121  F   -0.163297
   122  F   -0.163932
   123  C    0.431978
   124  F   -0.157784
   125  F   -0.154207
   126  F   -0.154788
   127  C    0.443882
   128  F   -0.156381
   129  F   -0.146620
   130  F   -0.169530
   131  H    0.122439
   132  H    0.129827
   133  H    0.152152
   134  H    0.115656
 Sum of Mulliken charges =  -0.00000

 Dipole moment (field-independent basis, Debye):
    X=              0.1699    Y=             -1.6680    Z=             11.8413  Tot=             11.9594
 Quadrupole moment (field-independent basis, Debye-Ang):
   XX=           -589.0603   YY=           -572.5485   ZZ=           -595.8324
   XY=              9.7798   XZ=              4.4576   YZ=             -3.4301

 Summary of Natural Population Analysis:

                                       Natural Population
                Natural  -----------------------------------------------
    Atom  No    Charge         Core      Valence    Rydberg      Total
 -----------------------------------------------------------------------
     Fe    1   -0.27888     17.99004     8.24368    0.04515    26.27888
      P    2    1.22493      9.99551     3.72597    0.05359    13.77507
      P    3    1.20426      9.99566     3.74470    0.05538    13.79574
      C    4   -0.38796      1.99840     4.34535    0.04421     6.38796
      C    5   -0.20625      1.99863     4.18397    0.02365     6.20625
      C    6   -0.18242      1.99880     4.15907    0.02455     6.18242
      C    7   -0.19931      1.99870     4.17751    0.02311     6.19931
      C    8    0.03515      1.99862     3.92874    0.03749     5.96485
      C    9   -0.38306      1.99843     4.33996    0.04467     6.38306
      C   10    0.03430      1.99862     3.92959    0.03749     5.96570
      C   11   -0.20200      1.99869     4.17998    0.02334     6.20200
      C   12   -0.18226      1.99880     4.15905    0.02441     6.18226
      C   13   -0.20470      1.99865     4.18124    0.02481     6.20470
      C   14   -0.34354      1.99900     4.30919    0.03535     6.34354
      C   15   -0.15200      1.99902     4.13356    0.01942     6.15200
      C   16   -0.15447      1.99897     4.13037    0.02514     6.15447
      C   17   -0.13375      1.99907     4.11845    0.01623     6.13375
      C   18   -0.15349      1.99897     4.12966    0.02486     6.15349
      C   19   -0.12830      1.99904     4.11017    0.01909     6.12830
      C   20   -0.34322      1.99899     4.31085    0.03338     6.34322
      C   21   -0.16444      1.99904     4.14472    0.02068     6.16444
      C   22   -0.14632      1.99896     4.12247    0.02489     6.14632
      C   23   -0.13745      1.99906     4.12268    0.01571     6.13745
      C   24   -0.14902      1.99896     4.12493    0.02514     6.14902
      C   25   -0.14675      1.99902     4.12904    0.01869     6.14675
      C   26   -0.35471      1.99901     4.32127    0.03443     6.35471
      C   27   -0.16686      1.99902     4.14714    0.02070     6.16686
      C   28   -0.15096      1.99896     4.12689    0.02511     6.15096
      C   29   -0.12765      1.99906     4.11267    0.01592     6.12765
      C   30   -0.13656      1.99897     4.11294    0.02465     6.13656
      C   31   -0.14584      1.99904     4.12807    0.01873     6.14584
      C   32   -0.33212      1.99901     4.29725    0.03587     6.33212
      C   33   -0.15961      1.99899     4.14075    0.01986     6.15961
      C   34   -0.14570      1.99897     4.12032    0.02641     6.14570
      C   35   -0.13897      1.99907     4.12379    0.01612     6.13897
      C   36   -0.14863      1.99897     4.12482    0.02484     6.14863
      C   37   -0.13395      1.99900     4.11648    0.01847     6.13395
      H   38    0.26075      0.00000     0.73692    0.00233     0.73925
      H   39    0.26071      0.00000     0.73727    0.00202     0.73929
      H   40    0.25083      0.00000     0.74689    0.00228     0.74917
      H   41    0.25749      0.00000     0.74120    0.00131     0.74251
      H   42    0.26466      0.00000     0.73382    0.00152     0.73534
      H   43    0.25744      0.00000     0.73963    0.00293     0.74256
      H   44    0.26268      0.00000     0.73599    0.00133     0.73732
      H   45    0.25316      0.00000     0.74466    0.00218     0.74684
      H   46    0.25070      0.00000     0.74666    0.00265     0.74930
      H   47    0.25635      0.00000     0.74231    0.00134     0.74365
      H   48    0.28291      0.00000     0.71553    0.00156     0.71709
      H   49    0.24792      0.00000     0.74995    0.00214     0.75208
      H   50    0.25951      0.00000     0.73917    0.00133     0.74049
      H   51    0.25555      0.00000     0.74302    0.00142     0.74445
     Cl   52   -0.36577      9.99962     7.35718    0.00897    17.36577
     Cl   53   -0.38691      9.99963     7.37918    0.00810    17.38691
     Pd   54   -0.19470     35.98910    10.17825    0.02734    46.19470
      C   55   -0.10881      1.99908     4.08500    0.02473     6.10881
      H   56    0.27429      0.00000     0.72339    0.00232     0.72571
      H   57    0.26170      0.00000     0.73670    0.00160     0.73830
      C   58   -0.11370      1.99908     4.08895    0.02567     6.11370
      H   59    0.20104      0.00000     0.79438    0.00458     0.79896
      N   60   -0.40929      1.99955     5.38312    0.02661     7.40929
      C   61   -0.42847      1.99941     4.41542    0.01364     6.42847
      C   62   -0.43133      1.99940     4.42185    0.01007     6.43133
      H   63    0.21653      0.00000     0.78218    0.00129     0.78347
      H   64    0.21154      0.00000     0.78666    0.00180     0.78846
      H   65    0.16496      0.00000     0.83153    0.00351     0.83504
      H   66    0.20934      0.00000     0.78922    0.00144     0.79066
      H   67    0.17594      0.00000     0.82140    0.00267     0.82406
      H   68    0.21746      0.00000     0.78119    0.00135     0.78254
      C   69   -0.22389      1.99922     4.20670    0.01797     6.22389
      C   70   -0.21175      1.99922     4.19496    0.01757     6.21175
      C   71   -0.22692      1.99906     4.20930    0.01857     6.22692
      C   72   -0.00637      1.99906     3.98530    0.02200     6.00637
      C   73   -0.22492      1.99907     4.20745    0.01839     6.22492
      C   74   -0.21155      1.99921     4.19436    0.01797     6.21155
      H   75    0.22580      0.00000     0.77306    0.00114     0.77420
      H   76    0.22389      0.00000     0.77493    0.00117     0.77611
      H   77    0.23257      0.00000     0.76555    0.00189     0.76743
      H   78    0.21608      0.00000     0.78155    0.00237     0.78392
      H   79    0.22529      0.00000     0.77342    0.00129     0.77471
      N   80   -0.41329      1.99956     5.38711    0.02662     7.41329
      H   81    0.20917      0.00000     0.78612    0.00470     0.79083
      C   82   -0.43189      1.99940     4.42235    0.01014     6.43189
      C   83   -0.42907      1.99940     4.41659    0.01308     6.42907
      H   84    0.17839      0.00000     0.81894    0.00267     0.82161
      H   85    0.21637      0.00000     0.78232    0.00131     0.78363
      H   86    0.20843      0.00000     0.79012    0.00145     0.79157
      H   87    0.17123      0.00000     0.82617    0.00260     0.82877
      H   88    0.21504      0.00000     0.78361    0.00135     0.78496
      H   89    0.20528      0.00000     0.79281    0.00192     0.79472
      C   90   -0.22494      1.99922     4.20785    0.01787     6.22494
      C   91   -0.21334      1.99922     4.19649    0.01763     6.21334
      C   92   -0.22801      1.99906     4.21027    0.01868     6.22801
      C   93   -0.00786      1.99906     3.98696    0.02184     6.00786
      C   94   -0.22808      1.99908     4.21020    0.01880     6.22808
      C   95   -0.20876      1.99921     4.19206    0.01749     6.20876
      H   96    0.22492      0.00000     0.77392    0.00116     0.77508
      H   97    0.23053      0.00000     0.76757    0.00190     0.76947
      H   98    0.22312      0.00000     0.77496    0.00192     0.77688
      C   99    0.95130      1.99912     3.00243    0.04715     5.04870
      F  100   -0.30961      1.99992     7.30139    0.00829     9.30961
      F  101   -0.30640      1.99992     7.29795    0.00852     9.30640
      F  102   -0.31349      1.99993     7.30532    0.00825     9.31349
      C  103    0.95001      1.99913     3.00334    0.04752     5.04999
      F  104   -0.30635      1.99992     7.29809    0.00833     9.30635
      F  105   -0.31266      1.99993     7.30432    0.00841     9.31266
      F  106   -0.30104      1.99992     7.29235    0.00877     9.30104
      C  107    0.95044      1.99912     3.00317    0.04728     5.04956
      F  108   -0.30583      1.99992     7.29756    0.00835     9.30583
      F  109   -0.30518      1.99992     7.29671    0.00855     9.30518
      F  110   -0.31723      1.99993     7.30868    0.00862     9.31723
      C  111    0.95068      1.99912     3.00279    0.04740     5.04932
      F  112   -0.31989      1.99993     7.31157    0.00839     9.31989
      F  113   -0.30494      1.99992     7.29641    0.00861     9.30494
      F  114   -0.30040      1.99992     7.29179    0.00869     9.30040
      C  115    0.95160      1.99912     3.00213    0.04715     5.04840
      F  116   -0.30614      1.99992     7.29767    0.00854     9.30614
      F  117   -0.31659      1.99993     7.30832    0.00835     9.31659
      F  118   -0.30966      1.99992     7.30146    0.00827     9.30966
      C  119    0.95085      1.99914     3.00233    0.04768     5.04915
      F  120   -0.30116      1.99992     7.29271    0.00852     9.30116
      F  121   -0.31045      1.99992     7.30204    0.00849     9.31045
      F  122   -0.31223      1.99993     7.30383    0.00848     9.31223
      C  123    0.95001      1.99912     3.00363    0.04724     5.04999
      F  124   -0.30498      1.99992     7.29662    0.00843     9.30498
      F  125   -0.30404      1.99992     7.29560    0.00851     9.30404
      F  126   -0.31212      1.99993     7.30341    0.00878     9.31212
      C  127    0.95109      1.99912     3.00163    0.04816     5.04891
      F  128   -0.30485      1.99992     7.29675    0.00818     9.30485
      F  129   -0.30104      1.99992     7.29262    0.00849     9.30104
      F  130   -0.31725      1.99993     7.30882    0.00850     9.31725
      H  131    0.22279      0.00000     0.77602    0.00119     0.77721
      H  132    0.22888      0.00000     0.76990    0.00122     0.77112
      H  133    0.27673      0.00000     0.72095    0.00232     0.72327
      H  134    0.26169      0.00000     0.73674    0.00157     0.73831
 =======================================================================
   * Total *    0.00000    265.90783   499.98594    2.10623   768.00000

 Normal termination of Gaussian 09 at Thu Dec  2 17:05:28 2021.
