 Gaussian 09, Revision E.01,

 ----------------------------------------------------------------------
 # PBE1PBE gen pseudo=read int=(grid=ultrafine) empiricaldispersion=GD3
 BJ nmr=giao
 ----------------------------------------------------------------------

 --------------
 M003_1_1 title
 --------------
 Symbolic Z-matrix:
 Charge =  0 Multiplicity = 1

 SCF Done:  E(RPBE1PBE) =  -5620.86699300     A.U. after   27 cycles

      1  Fe   Isotropic = -6114.4410   Anisotropy =  7795.0262

      2  P    Isotropic =   297.8383   Anisotropy =    52.9047

      3  P    Isotropic =   310.7350   Anisotropy =    35.4947

      4  C    Isotropic =   111.5759   Anisotropy =    79.1529

      5  C    Isotropic =    98.0553   Anisotropy =    78.1544

      6  C    Isotropic =   102.2522   Anisotropy =   105.0541

      7  C    Isotropic =   104.7631   Anisotropy =    87.6452

      8  C    Isotropic =    92.4156   Anisotropy =    81.7830

      9  C    Isotropic =   105.5568   Anisotropy =    83.7684

     10  C    Isotropic =    81.3136   Anisotropy =    95.0613

     11  C    Isotropic =   108.0654   Anisotropy =    93.5472

     12  C    Isotropic =   105.9994   Anisotropy =    99.1229

     13  C    Isotropic =   108.2821   Anisotropy =    81.3036

     14  C    Isotropic =    30.2811   Anisotropy =   203.8775

     15  C    Isotropic =    50.0668   Anisotropy =   189.5336

     16  C    Isotropic =    46.8623   Anisotropy =   161.2950

     17  C    Isotropic =    58.1135   Anisotropy =   183.2587

     18  C    Isotropic =    47.7987   Anisotropy =   160.7393

     19  C    Isotropic =    48.7969   Anisotropy =   194.8572

     20  C    Isotropic =    37.3264   Anisotropy =   202.4951

     21  C    Isotropic =    37.9447   Anisotropy =   210.1082

     22  C    Isotropic =    45.5349   Anisotropy =   162.7151

     23  C    Isotropic =    54.3982   Anisotropy =   191.2796

     24  C    Isotropic =    46.9236   Anisotropy =   160.1972

     25  C    Isotropic =    38.1517   Anisotropy =   190.7081

     26  C    Isotropic =    36.2700   Anisotropy =   206.1577

     27  C    Isotropic =    37.4809   Anisotropy =   203.5686

     28  C    Isotropic =    44.9797   Anisotropy =   165.3434

     29  C    Isotropic =    52.6288   Anisotropy =   194.7222

     30  C    Isotropic =    43.7635   Anisotropy =   168.1032

     31  C    Isotropic =    45.9165   Anisotropy =   189.9783

     32  C    Isotropic =    40.7371   Anisotropy =   205.3385

     33  C    Isotropic =    39.0338   Anisotropy =   207.4634

     34  C    Isotropic =    45.4509   Anisotropy =   164.4134

     35  C    Isotropic =    55.3739   Anisotropy =   190.5970

     36  C    Isotropic =    45.8404   Anisotropy =   162.7996

     37  C    Isotropic =    41.0787   Anisotropy =   191.1524

     38  H    Isotropic =    27.0062   Anisotropy =     6.6279

     39  H    Isotropic =    27.9138   Anisotropy =     8.7219

     40  H    Isotropic =    23.9473   Anisotropy =    15.3793

     41  H    Isotropic =    23.5405   Anisotropy =     9.6277

     42  H    Isotropic =    23.6146   Anisotropy =    17.8700

     43  H    Isotropic =    22.2083   Anisotropy =    10.0241

     44  H    Isotropic =    23.1197   Anisotropy =    11.0267

     45  H    Isotropic =    22.2602   Anisotropy =     9.6005

     46  H    Isotropic =    22.9051   Anisotropy =    15.7191

     47  H    Isotropic =    23.0194   Anisotropy =     9.0863

     48  H    Isotropic =    22.7033   Anisotropy =    12.2483

     49  H    Isotropic =    23.3507   Anisotropy =    15.5530

     50  H    Isotropic =    23.0326   Anisotropy =     9.8626

     51  H    Isotropic =    22.2409   Anisotropy =    11.6262

     52  C    Isotropic =   116.0211   Anisotropy =    30.1885

     53  H    Isotropic =    27.7509   Anisotropy =    10.7518

     54  H    Isotropic =    27.5076   Anisotropy =     4.0120

     55  C    Isotropic =   117.4074   Anisotropy =    41.8827

     56  H    Isotropic =    27.2381   Anisotropy =     5.7059

     57  N    Isotropic =   202.8284   Anisotropy =    58.9417

     58  C    Isotropic =   140.6860   Anisotropy =    54.5397

     59  C    Isotropic =   145.3355   Anisotropy =    48.1133

     60  H    Isotropic =    29.5718   Anisotropy =     9.2412

     61  H    Isotropic =    29.3190   Anisotropy =    11.3833

     62  H    Isotropic =    30.4179   Anisotropy =     7.5046

     63  H    Isotropic =    29.9490   Anisotropy =    11.1053

     64  H    Isotropic =    29.7405   Anisotropy =     9.6545

     65  H    Isotropic =    29.4648   Anisotropy =     7.1017

     66  C    Isotropic =    51.8092   Anisotropy =   188.1797

     67  C    Isotropic =    52.1047   Anisotropy =   186.2937

     68  C    Isotropic =    50.7787   Anisotropy =   183.3414

     69  C    Isotropic =    39.3016   Anisotropy =   193.5574

     70  C    Isotropic =    47.9552   Anisotropy =   166.4534

     71  C    Isotropic =    50.7743   Anisotropy =   186.4015

     72  H    Isotropic =    23.8371   Anisotropy =     3.6063

     73  H    Isotropic =    23.7923   Anisotropy =     6.3420

     74  H    Isotropic =    23.8564   Anisotropy =    10.9349

     75  H    Isotropic =    24.4797   Anisotropy =     9.1466

     76  H    Isotropic =    23.8789   Anisotropy =     7.5510

     77  N    Isotropic =   191.7132   Anisotropy =    57.5974

     78  H    Isotropic =    29.2414   Anisotropy =    14.4530

     79  C    Isotropic =   139.3602   Anisotropy =    61.8149

     80  C    Isotropic =   139.7990   Anisotropy =    54.2826

     81  H    Isotropic =    30.1695   Anisotropy =     8.1604

     82  H    Isotropic =    29.5621   Anisotropy =     6.7250

     83  H    Isotropic =    29.5219   Anisotropy =    12.1965

     84  H    Isotropic =    29.6317   Anisotropy =     5.8987

     85  H    Isotropic =    29.3012   Anisotropy =    10.3671

     86  H    Isotropic =    29.2197   Anisotropy =     7.6661

     87  C    Isotropic =    52.2435   Anisotropy =   186.6122

     88  C    Isotropic =    51.0992   Anisotropy =   188.7324

     89  C    Isotropic =    49.3911   Anisotropy =   173.3664

     90  C    Isotropic =    29.1881   Anisotropy =   206.7584

     91  C    Isotropic =    52.0840   Anisotropy =   191.9628

     92  C    Isotropic =    50.4238   Anisotropy =   189.2101

     93  H    Isotropic =    23.7971   Anisotropy =     3.7302

     94  H    Isotropic =    24.2449   Anisotropy =     6.0561

     95  H    Isotropic =    23.5676   Anisotropy =     9.7132

     96  C    Isotropic =    48.4140   Anisotropy =    15.9349

     97  F    Isotropic =   238.7983   Anisotropy =   145.5338

     98  F    Isotropic =   221.4803   Anisotropy =   147.5208

     99  F    Isotropic =   252.0347   Anisotropy =   132.3953

    100  C    Isotropic =    48.9297   Anisotropy =    12.2219

    101  F    Isotropic =   223.9057   Anisotropy =   151.2661

    102  F    Isotropic =   232.0522   Anisotropy =   149.6615

    103  F    Isotropic =   256.7948   Anisotropy =   115.8259

    104  C    Isotropic =    48.7625   Anisotropy =    15.1341

    105  F    Isotropic =   253.8729   Anisotropy =   129.7666

    106  F    Isotropic =   213.6413   Anisotropy =   141.6696

    107  F    Isotropic =   237.8986   Anisotropy =   142.3299

    108  C    Isotropic =    48.2512   Anisotropy =    14.4733

    109  F    Isotropic =   232.5350   Anisotropy =   148.9680

    110  F    Isotropic =   252.2989   Anisotropy =   129.6439

    111  F    Isotropic =   223.8699   Anisotropy =   141.2712

    112  C    Isotropic =    48.7724   Anisotropy =    14.1503

    113  F    Isotropic =   247.5834   Anisotropy =   139.2483

    114  F    Isotropic =   223.3077   Anisotropy =   144.0468

    115  F    Isotropic =   245.5328   Anisotropy =   138.3919

    116  C    Isotropic =    48.3071   Anisotropy =    14.7153

    117  F    Isotropic =   252.6984   Anisotropy =   128.2484

    118  F    Isotropic =   241.8893   Anisotropy =   143.8849

    119  F    Isotropic =   217.4780   Anisotropy =   151.2331

    120  C    Isotropic =    48.5854   Anisotropy =    14.6146

    121  F    Isotropic =   245.4852   Anisotropy =   137.8902

    122  F    Isotropic =   216.2991   Anisotropy =   146.9132

    123  F    Isotropic =   243.5607   Anisotropy =   129.1100

    124  C    Isotropic =    49.6239   Anisotropy =    17.2334

    125  F    Isotropic =   229.5743   Anisotropy =   133.1854

    126  F    Isotropic =   224.2859   Anisotropy =   150.2110

    127  F    Isotropic =   257.0020   Anisotropy =   125.2074

    128  H    Isotropic =    23.6614   Anisotropy =     7.7631

    129  H    Isotropic =    23.7332   Anisotropy =     4.9706

    130  H    Isotropic =    29.8862   Anisotropy =    18.3459

    131  H    Isotropic =    27.6590   Anisotropy =     7.8093

 1\1\GINC-NC218\SP\RPBE1PBE\Gen\C60H42F24Fe1N2P2\MACKK4\02-Dec-2021\0\\
 # PBE1PBE gen pseudo=read int=(grid=ultrafine) empiricaldispersion=GD3
 BJ nmr=giao\\M003_1_1 title\\0,1\Fe,0,-0.0207573606,-1.5194394682,1.69
 19914869\P,0,1.7968366948,-0.0940627556,-0.7720030544\P,0,-1.781304083
 2,0.2962586294,-0.540408089\C,0,1.5041010016,-1.4370879802,0.413507368
 \C,0,0.5790102525,-2.4850681115,0.0169591343\C,0,0.4937642092,-3.43766
 53067,1.0770747517\C,0,1.3395579276,-2.9934968575,2.1366134057\C,0,1.9
 930336576,-1.7655953092,1.7521710319\C,0,-1.5321260093,-0.3034273015,1

 Normal termination of Gaussian 09 at Thu Dec  2 09:28:06 2021.
 Gaussian 09:  ES64L-G09RevE.01 30-Nov-2015

 ----------------------------------------------------------------------
 # PBE1PBE gen pseudo=read int=(grid=ultrafine) empiricaldispersion=GD3
 BJ pop=nbo guess=read geom=check
 ----------------------------------------------------------------------

 --------------
 M003_1_1 title
 --------------
 Structure from the checkpoint file:  "M003_1_1_SPE_NoPd.chk"
 Charge =  0 Multiplicity = 1

                         Standard orientation:
 ---------------------------------------------------------------------
 Center     Atomic      Atomic             Coordinates (Angstroms)
 Number     Number       Type             X           Y           Z
 ---------------------------------------------------------------------
      1         26           0       -0.055656   -1.411065    1.417674
      2         15           0        1.774226   -0.078308   -1.088700
      3         15           0       -1.804830    0.321055   -0.888848
      4          6           0        1.475321   -1.376439    0.144329
      5          6           0        0.551734   -2.438199   -0.217552
      6          6           0        0.461064   -3.350857    0.876700
      7          6           0        1.301958   -2.867919    1.923095
      8          6           0        1.957731   -1.655234    1.496566
      9          6           0       -1.564075   -0.214729    0.848756
     10          6           0       -2.088266   -1.299475    1.680424
     11          6           0       -1.412077   -1.211112    2.950122
     12          6           0       -0.515085   -0.100934    2.938463
     13          6           0       -0.596488    0.515450    1.651569
     14          6           0        3.337983   -0.634253   -1.878139
     15          6           0        4.175582    0.287118   -2.531371
     16          6           0        5.375203   -0.149104   -3.108008
     17          6           0        5.745923   -1.498502   -3.049339
     18          6           0        4.900755   -2.414144   -2.410032
     19          6           0        3.696800   -1.989065   -1.832964
     20          6           0        2.262346    1.528407   -0.325529
     21          6           0        3.528204    1.736221    0.256253
     22          6           0        3.869402    3.010784    0.731130
     23          6           0        2.962352    4.078817    0.645909
     24          6           0        1.711115    3.868799    0.060703
     25          6           0        1.369741    2.604996   -0.442416
     26          6           0       -2.469274    2.021855   -0.597960
     27          6           0       -3.143439    2.290315    0.604723
     28          6           0       -3.677017    3.563180    0.848731
     29          6           0       -3.525001    4.583940   -0.094358
     30          6           0       -2.844119    4.316004   -1.291031
     31          6           0       -2.321106    3.044282   -1.553975
     32          6           0       -3.244908   -0.627976   -1.527833
     33          6           0       -4.564015   -0.246258   -1.247165
     34          6           0       -5.631636   -1.025751   -1.716518
     35          6           0       -5.393955   -2.180137   -2.471714
     36          6           0       -4.073370   -2.540285   -2.774600
     37          6           0       -3.001427   -1.765231   -2.314631
     38          1           0        0.000162   -2.487948   -1.157826
     39          1           0       -0.018330    1.376934    1.317819
     40          1           0        3.902930    1.342431   -2.589656
     41          1           0        6.687049   -1.831029   -3.494584
     42          1           0        3.049288   -2.719174   -1.343048
     43          1           0        4.232150    0.898945    0.332279
     44          1           0        3.240496    5.070497    1.009924
     45          1           0        0.414858    2.460013   -0.959788
     46          1           0       -3.258284    1.509581    1.359771
     47          1           0       -3.926246    5.581625    0.102146
     48          1           0       -1.813573    2.839231   -2.501406
     49          1           0       -4.771827    0.659714   -0.671443
     50          1           0       -6.227668   -2.786114   -2.832059
     51          1           0       -1.975169   -2.029230   -2.587350
     52          6           0        3.002671   -0.876640    2.266615
     53          1           0        0.172572    0.173178    3.738550
     54          1           0       -1.556781   -1.906752    3.775020
     55          6           0       -3.248165   -2.258609    1.442378
     56          1           0        2.789569    0.198199    2.110575
     57          7           0        4.345711   -1.080518    1.650795
     58          6           0        5.396732   -0.388998    2.402387
     59          6           0        4.746278   -2.464814    1.397862
     60          1           0        6.301728   -0.322096    1.774772
     61          1           0        5.075078    0.631524    2.658460
     62          1           0        5.663250   -0.906887    3.349788
     63          1           0        5.595949   -2.467980    0.695317
     64          1           0        5.067968   -3.006279    2.315600
     65          1           0        3.923538   -3.026547    0.930689
     66          6           0        2.902691   -1.351784    6.599412
     67          6           0        3.196565   -2.459068    5.790991
     68          6           0        3.219664   -2.332428    4.394884
     69          6           0        2.945225   -1.094017    3.778573
     70          6           0        2.683252    0.014397    4.606723
     71          6           0        2.650584   -0.108958    6.002140
     72          1           0        2.882249   -1.454938    7.688886
     73          1           0        3.412193   -3.430120    6.248830
     74          1           0        3.457901   -3.208042    3.784946
     75          1           0        2.513964    0.995106    4.144232
     76          1           0        2.437500    0.767823    6.622337
     77          7           0       -4.264421   -2.056237    2.507665
     78          1           0       -3.679943   -2.036287    0.445360
     79          6           0       -5.440831   -2.898357    2.251716
     80          6           0       -4.698616   -0.659531    2.610225
     81          1           0       -5.959441   -2.635512    1.302045
     82          1           0       -5.148056   -3.958283    2.211759
     83          1           0       -6.157404   -2.766289    3.079659
     84          1           0       -5.183193   -0.278920    1.681648
     85          1           0       -5.437430   -0.579314    3.425080
     86          1           0       -3.849076   -0.007875    2.866600
     87          6           0       -1.879771   -6.385553    1.309855
     88          6           0       -2.241525   -5.716358    0.131780
     89          6           0       -2.699451   -4.392599    0.192706
     90          6           0       -2.794900   -3.716269    1.418844
     91          6           0       -2.458712   -4.403108    2.599912
     92          6           0       -1.998896   -5.725660    2.544648
     93          1           0       -1.519908   -7.418698    1.270351
     94          1           0       -2.978589   -3.877178   -0.728419
     95          1           0       -2.591531   -3.902595    3.563851
     96          6           0       -4.351554    3.818852    2.174304
     97          9           0       -5.088038    2.739214    2.567656
     98          9           0       -3.436288    4.050712    3.155895
     99          9           0       -5.179751    4.892234    2.125861
    100          6           0       -2.693254    5.434217   -2.298012
    101          9           0       -3.893828    5.743435   -2.861069
    102          9           0       -2.236053    6.566713   -1.691919
    103          9           0       -1.835581    5.116874   -3.294235
    104          6           0       -7.037230   -0.625334   -1.339796
    105          9           0       -7.970634   -1.266254   -2.085474
    106          9           0       -7.293396   -0.919926   -0.026955
    107          9           0       -7.225915    0.711938   -1.482326
    108          6           0       -3.781389   -3.745879   -3.636985
    109          9           0       -2.751816   -4.481401   -3.109934
    110          9           0       -4.856843   -4.567882   -3.741923
    111          9           0       -3.407813   -3.386280   -4.887771
    112          6           0        6.242647    0.840054   -3.850242
    113          9           0        7.550647    0.460988   -3.839437
    114          9           0        5.864811    0.953933   -5.148969
    115          9           0        6.166732    2.080101   -3.294370
    116          6           0        5.343006   -3.847875   -2.262460
    117          9           0        4.306744   -4.674655   -1.961512
    118          9           0        5.936756   -4.311370   -3.391864
    119          9           0        6.261210   -3.974447   -1.254198
    120          6           0        5.211809    3.241732    1.384249
    121          9           0        5.636914    4.519864    1.223007
    122          9           0        5.140502    3.013432    2.733072
    123          9           0        6.166006    2.415158    0.886551
    124          6           0        0.693994    4.980142   -0.045887
    125          9           0        0.251636    5.113451   -1.323681
    126          9           0       -0.394728    4.703850    0.730988
    127          9           0        1.191591    6.175283    0.354477
    128          1           0       -2.174734   -6.217038   -0.839558
    129          1           0       -1.740250   -6.248709    3.471495
    130          1           0       -0.191241   -4.220067    0.929900
    131          1           0        1.376878   -3.298565    2.920145
 ---------------------------------------------------------------------

 SCF Done:  E(RPBE1PBE) =  -5620.86699300     A.U. after    4 cycles

 The electronic state is 1-A.
 Alpha  occ. eigenvalues --  -77.24110 -77.23187 -24.82743 -24.82581 -24.82481
 Alpha  occ. eigenvalues --  -24.82443 -24.82381 -24.82282 -24.82094 -24.82085
 Alpha  occ. eigenvalues --  -24.82041 -24.81941 -24.81934 -24.81910 -24.81871
 Alpha  occ. eigenvalues --  -24.81716 -24.81712 -24.81506 -24.81442 -24.81298
 Alpha  occ. eigenvalues --  -24.81236 -24.81142 -24.81121 -24.81047 -24.80930
 Alpha  occ. eigenvalues --  -24.80907 -14.39863 -14.39673 -10.50338 -10.50056
 Alpha  occ. eigenvalues --  -10.49848 -10.49673 -10.49445 -10.49181 -10.48906
 Alpha  occ. eigenvalues --  -10.48710 -10.29915 -10.29765 -10.29264 -10.29243
 Alpha  occ. eigenvalues --  -10.29195 -10.29076 -10.29018 -10.28964 -10.28916
 Alpha  occ. eigenvalues --  -10.28764 -10.28760 -10.28460 -10.28459 -10.28402
 Alpha  occ. eigenvalues --  -10.28383 -10.28303 -10.28267 -10.28229 -10.28070
 Alpha  occ. eigenvalues --  -10.28035 -10.27983 -10.27865 -10.27449 -10.27375
 Alpha  occ. eigenvalues --  -10.27223 -10.27171 -10.27059 -10.27054 -10.26961
 Alpha  occ. eigenvalues --  -10.26826 -10.26170 -10.26146 -10.25864 -10.25535
 Alpha  occ. eigenvalues --  -10.25504 -10.25474 -10.25467 -10.25352 -10.24755
 Alpha  occ. eigenvalues --  -10.24735 -10.24706 -10.24652 -10.24641 -10.24636
 Alpha  occ. eigenvalues --  -10.24556 -10.24548 -10.24536 -10.24511 -10.24477
 Alpha  occ. eigenvalues --  -10.24348 -10.24250 -10.24184  -6.63659  -6.62762
 Alpha  occ. eigenvalues --   -4.77261  -4.77240  -4.76783  -4.76372  -4.76340
 Alpha  occ. eigenvalues --   -4.75890  -3.62737  -2.27268  -2.23061  -2.23025
 Alpha  occ. eigenvalues --   -1.36186  -1.35894  -1.35793  -1.35574  -1.35303
 Alpha  occ. eigenvalues --   -1.35119  -1.34824  -1.34683  -1.27901  -1.27739
 Alpha  occ. eigenvalues --   -1.27570  -1.27517  -1.27350  -1.27106  -1.27067
 Alpha  occ. eigenvalues --   -1.27057  -1.26954  -1.26845  -1.26658  -1.26602
 Alpha  occ. eigenvalues --   -1.26282  -1.26273  -1.26146  -1.26042  -0.96675
 Alpha  occ. eigenvalues --   -0.96472  -0.94655  -0.94023  -0.93848  -0.93601
 Alpha  occ. eigenvalues --   -0.92746  -0.91961  -0.89350  -0.89307  -0.86153
 Alpha  occ. eigenvalues --   -0.85524  -0.85215  -0.84895  -0.84459  -0.84182
 Alpha  occ. eigenvalues --   -0.82866  -0.82021  -0.81472  -0.81343  -0.78329
 Alpha  occ. eigenvalues --   -0.78105  -0.77073  -0.76921  -0.76801  -0.76512
 Alpha  occ. eigenvalues --   -0.76200  -0.75734  -0.75313  -0.75256  -0.74853
 Alpha  occ. eigenvalues --   -0.74635  -0.74427  -0.73830  -0.73164  -0.72726
 Alpha  occ. eigenvalues --   -0.71419  -0.71302  -0.70414  -0.69838  -0.68477
 Alpha  occ. eigenvalues --   -0.67944  -0.67824  -0.67527  -0.67262  -0.66829
 Alpha  occ. eigenvalues --   -0.65839  -0.65276  -0.64560  -0.64282  -0.63940
 Alpha  occ. eigenvalues --   -0.63512  -0.63284  -0.63205  -0.63137  -0.63014
 Alpha  occ. eigenvalues --   -0.62861  -0.62790  -0.62772  -0.62538  -0.62517
 Alpha  occ. eigenvalues --   -0.62445  -0.62246  -0.62087  -0.61915  -0.61854
 Alpha  occ. eigenvalues --   -0.61748  -0.61666  -0.61501  -0.61221  -0.60928
 Alpha  occ. eigenvalues --   -0.60768  -0.59489  -0.59075  -0.58439  -0.58228
 Alpha  occ. eigenvalues --   -0.57399  -0.56906  -0.56656  -0.55917  -0.55865
 Alpha  occ. eigenvalues --   -0.55703  -0.55410  -0.55132  -0.54950  -0.54204
 Alpha  occ. eigenvalues --   -0.53695  -0.53356  -0.53210  -0.53111  -0.52532
 Alpha  occ. eigenvalues --   -0.52463  -0.52022  -0.51365  -0.51014  -0.50993
 Alpha  occ. eigenvalues --   -0.50749  -0.50702  -0.50659  -0.50557  -0.50548
 Alpha  occ. eigenvalues --   -0.50332  -0.50283  -0.50207  -0.50095  -0.49889
 Alpha  occ. eigenvalues --   -0.49754  -0.49710  -0.49694  -0.49639  -0.49477
 Alpha  occ. eigenvalues --   -0.49401  -0.49363  -0.48956  -0.48061  -0.47845
 Alpha  occ. eigenvalues --   -0.47700  -0.47563  -0.47409  -0.47289  -0.47207
 Alpha  occ. eigenvalues --   -0.47159  -0.47004  -0.46853  -0.46806  -0.46796
 Alpha  occ. eigenvalues --   -0.46734  -0.46624  -0.46481  -0.46372  -0.46256
 Alpha  occ. eigenvalues --   -0.46222  -0.46155  -0.46118  -0.45924  -0.45905
 Alpha  occ. eigenvalues --   -0.45599  -0.45465  -0.45414  -0.45390  -0.45299
 Alpha  occ. eigenvalues --   -0.45111  -0.44956  -0.44919  -0.44864  -0.44773
 Alpha  occ. eigenvalues --   -0.44743  -0.44632  -0.44538  -0.44429  -0.44308
 Alpha  occ. eigenvalues --   -0.44249  -0.44118  -0.44090  -0.44017  -0.43992
 Alpha  occ. eigenvalues --   -0.43961  -0.43756  -0.43689  -0.43596  -0.43257
 Alpha  occ. eigenvalues --   -0.43159  -0.42737  -0.42493  -0.42247  -0.42054
 Alpha  occ. eigenvalues --   -0.42015  -0.41823  -0.41412  -0.40992  -0.40738
 Alpha  occ. eigenvalues --   -0.40558  -0.40313  -0.40115  -0.39968  -0.39680
 Alpha  occ. eigenvalues --   -0.39590  -0.39355  -0.39061  -0.39026  -0.38795
 Alpha  occ. eigenvalues --   -0.38591  -0.38473  -0.38140  -0.37784  -0.37668
 Alpha  occ. eigenvalues --   -0.37257  -0.37166  -0.36963  -0.36516  -0.36450
 Alpha  occ. eigenvalues --   -0.36095  -0.33123  -0.32341  -0.32296  -0.32090
 Alpha  occ. eigenvalues --   -0.31794  -0.31630  -0.31507  -0.31198  -0.30470
 Alpha  occ. eigenvalues --   -0.30064  -0.29809  -0.29012  -0.28210  -0.28141
 Alpha  occ. eigenvalues --   -0.27918  -0.27503  -0.26646  -0.26101  -0.24849
 Alpha  occ. eigenvalues --   -0.24759  -0.24614  -0.24274  -0.23072
 Alpha virt. eigenvalues --   -0.08187  -0.07962  -0.07562  -0.07297  -0.06718
 Alpha virt. eigenvalues --   -0.06458  -0.05577  -0.05276  -0.03130  -0.02985
 Alpha virt. eigenvalues --   -0.02804  -0.02638  -0.02313  -0.02013  -0.00906

 Mulliken charges:
               1
     1  Fe  -1.257249
     2  P    0.033977
     3  P   -0.048818
     4  C    0.293763
     5  C   -0.241613
     6  C    0.012722
     7  C   -0.082329
     8  C    0.316942
     9  C    0.438537
    10  C    0.320350
    11  C   -0.080461
    12  C   -0.035668
    13  C   -0.176779
    14  C    0.203679
    15  C   -0.344596
    16  C    0.135521
    17  C   -0.315450
    18  C    0.098146
    19  C   -0.267679
    20  C    0.025261
    21  C   -0.289560
    22  C    0.140638
    23  C   -0.291754
    24  C    0.102165
    25  C   -0.266325
    26  C    0.153322
    27  C   -0.204479
    28  C    0.088607
    29  C   -0.295963
    30  C    0.165408
    31  C   -0.325598
    32  C    0.113816
    33  C   -0.247597
    34  C    0.138065
    35  C   -0.287936
    36  C    0.187599
    37  C   -0.354564
    38  H    0.100168
    39  H    0.151433
    40  H    0.160567
    41  H    0.160067
    42  H    0.204560
    43  H    0.241610
    44  H    0.171841
    45  H    0.212648
    46  H    0.135446
    47  H    0.161015
    48  H    0.158893
    49  H    0.180366
    50  H    0.173738
    51  H    0.166458
    52  C   -0.003415
    53  H    0.122169
    54  H    0.108859
    55  C   -0.011234
    56  H    0.127374
    57  N   -0.143285
    58  C   -0.329580
    59  C   -0.349960
    60  H    0.139906
    61  H    0.146326
    62  H    0.128776
    63  H    0.145224
    64  H    0.114562
    65  H    0.142018
    66  C   -0.126156
    67  C   -0.120903
    68  C   -0.307842
    69  C    0.099518
    70  C   -0.266201
    71  C   -0.111481
    72  H    0.122315
    73  H    0.122213
    74  H    0.167940
    75  H    0.141163
    76  H    0.123467
    77  N   -0.070672
    78  H    0.007873
    79  C   -0.326211
    80  C   -0.345648
    81  H    0.108037
    82  H    0.153430
    83  H    0.129271
    84  H    0.095760
    85  H    0.135504
    86  H    0.158393
    87  C   -0.096176
    88  C   -0.181821
    89  C   -0.112080
    90  C   -0.070743
    91  C   -0.150797
    92  C   -0.144876
    93  H    0.122490
    94  H    0.080288
    95  H    0.136036
    96  C    0.428983
    97  F   -0.161498
    98  F   -0.157019
    99  F   -0.158709
   100  C    0.465391
   101  F   -0.158780
   102  F   -0.165592
   103  F   -0.162307
   104  C    0.435818
   105  F   -0.156788
   106  F   -0.155292
   107  F   -0.156350
   108  C    0.452637
   109  F   -0.165909
   110  F   -0.158584
   111  F   -0.148419
   112  C    0.437625
   113  F   -0.164178
   114  F   -0.155494
   115  F   -0.164754
   116  C    0.448457
   117  F   -0.165644
   118  F   -0.160422
   119  F   -0.165629
   120  C    0.452319
   121  F   -0.157485
   122  F   -0.167845
   123  F   -0.157594
   124  C    0.452777
   125  F   -0.163337
   126  F   -0.164372
   127  F   -0.156051
   128  H    0.123288
   129  H    0.120189
   130  H    0.147311
   131  H    0.140517
 Sum of Mulliken charges =  -0.00000

 Dipole moment (field-independent basis, Debye):
    X=             -1.2787    Y=             -3.5648    Z=              4.3108  Tot=              5.7381
 Quadrupole moment (field-independent basis, Debye-Ang):
   XX=           -562.8346   YY=           -537.8832   ZZ=           -523.8545
   XY=              6.2142   XZ=             15.9784   YZ=             -8.7832

 Summary of Natural Population Analysis:

                                       Natural Population
                Natural  -----------------------------------------------
    Atom  No    Charge         Core      Valence    Rydberg      Total
 -----------------------------------------------------------------------
     Fe    1   -0.29800     17.99028     8.26274    0.04498    26.29800
      P    2    0.88523      9.99765     4.08840    0.02872    14.11477
      P    3    0.87299      9.99772     4.09989    0.02940    14.12701
      C    4   -0.34131      1.99837     4.30333    0.03961     6.34131
      C    5   -0.19942      1.99865     4.17727    0.02350     6.19942
      C    6   -0.18812      1.99880     4.16510    0.02423     6.18812
      C    7   -0.20875      1.99868     4.18749    0.02257     6.20875
      C    8    0.00771      1.99857     3.95666    0.03706     5.99229
      C    9   -0.33617      1.99839     4.29837    0.03940     6.33617
      C   10    0.00874      1.99859     3.95567    0.03700     5.99126
      C   11   -0.20113      1.99868     4.17943    0.02302     6.20113
      C   12   -0.19191      1.99877     4.16973    0.02340     6.19191
      C   13   -0.20970      1.99864     4.18647    0.02459     6.20970
      C   14   -0.30606      1.99905     4.27648    0.03054     6.30606
      C   15   -0.17313      1.99904     4.15636    0.01773     6.17313
      C   16   -0.14102      1.99898     4.11801    0.02404     6.14102
      C   17   -0.16516      1.99907     4.14945    0.01664     6.16516
      C   18   -0.14584      1.99897     4.12205    0.02482     6.14584
      C   19   -0.16886      1.99902     4.15026    0.01958     6.16886
      C   20   -0.32747      1.99901     4.29777    0.03069     6.32747
      C   21   -0.16730      1.99902     4.14758    0.02070     6.16730
      C   22   -0.15682      1.99897     4.13298    0.02488     6.15682
      C   23   -0.14390      1.99907     4.12845    0.01638     6.14390
      C   24   -0.15377      1.99896     4.13138    0.02344     6.15377
      C   25   -0.16525      1.99904     4.14742    0.01879     6.16525
      C   26   -0.32639      1.99905     4.29591    0.03142     6.32639
      C   27   -0.17148      1.99902     4.15275    0.01970     6.17148
      C   28   -0.14731      1.99896     4.12304    0.02530     6.14731
      C   29   -0.13913      1.99906     4.12390    0.01618     6.13913
      C   30   -0.13552      1.99898     4.11189    0.02465     6.13552
      C   31   -0.16642      1.99904     4.14906    0.01832     6.16642
      C   32   -0.32402      1.99904     4.29388    0.03109     6.32402
      C   33   -0.15870      1.99901     4.14017    0.01953     6.15870
      C   34   -0.14574      1.99897     4.12161    0.02515     6.14574
      C   35   -0.15019      1.99907     4.13463    0.01649     6.15019
      C   36   -0.15130      1.99897     4.12684    0.02549     6.15130
      C   37   -0.15826      1.99904     4.14214    0.01708     6.15826
      H   38    0.25036      0.00000     0.74734    0.00230     0.74964
      H   39    0.25533      0.00000     0.74233    0.00234     0.74467
      H   40    0.24077      0.00000     0.75771    0.00151     0.75923
      H   41    0.25129      0.00000     0.74738    0.00133     0.74871
      H   42    0.24818      0.00000     0.74956    0.00226     0.75182
      H   43    0.27683      0.00000     0.72044    0.00273     0.72317
      H   44    0.25713      0.00000     0.74154    0.00133     0.74287
      H   45    0.24916      0.00000     0.74906    0.00178     0.75084
      H   46    0.25087      0.00000     0.74639    0.00274     0.74913
      H   47    0.25458      0.00000     0.74407    0.00135     0.74542
      H   48    0.24934      0.00000     0.74927    0.00139     0.75066
      H   49    0.24807      0.00000     0.74967    0.00226     0.75193
      H   50    0.25961      0.00000     0.73905    0.00134     0.74039
      H   51    0.24682      0.00000     0.75183    0.00135     0.75318
      C   52   -0.09653      1.99908     4.07187    0.02558     6.09653
      H   53    0.25987      0.00000     0.73784    0.00228     0.74013
      H   54    0.25788      0.00000     0.74050    0.00162     0.74212
      C   55   -0.10852      1.99909     4.08411    0.02532     6.10852
      H   56    0.22091      0.00000     0.77600    0.00309     0.77909
      N   57   -0.42557      1.99957     5.39977    0.02623     7.42557
      C   58   -0.43818      1.99941     4.42577    0.01301     6.43818
      C   59   -0.43490      1.99939     4.42190    0.01362     6.43490
      H   60    0.21096      0.00000     0.78761    0.00144     0.78904
      H   61    0.21070      0.00000     0.78822    0.00108     0.78930
      H   62    0.18343      0.00000     0.81328    0.00329     0.81657
      H   63    0.21717      0.00000     0.78149    0.00135     0.78283
      H   64    0.17367      0.00000     0.82382    0.00251     0.82633
      H   65    0.21321      0.00000     0.78523    0.00155     0.78679
      C   66   -0.21560      1.99922     4.19851    0.01787     6.21560
      C   67   -0.20594      1.99922     4.18884    0.01788     6.20594
      C   68   -0.23205      1.99909     4.21379    0.01918     6.23205
      C   69   -0.02530      1.99906     4.00482    0.02142     6.02530
      C   70   -0.22335      1.99912     4.20579    0.01844     6.22335
      C   71   -0.20687      1.99921     4.19018    0.01748     6.20687
      H   72    0.22129      0.00000     0.77757    0.00114     0.77871
      H   73    0.22037      0.00000     0.77846    0.00117     0.77963
      H   74    0.22200      0.00000     0.77592    0.00209     0.77800
      H   75    0.21562      0.00000     0.78284    0.00153     0.78438
      H   76    0.22195      0.00000     0.77686    0.00119     0.77805
      N   77   -0.41221      1.99956     5.38570    0.02694     7.41221
      H   78    0.20315      0.00000     0.79203    0.00482     0.79685
      C   79   -0.43225      1.99940     4.42271    0.01014     6.43225
      C   80   -0.42721      1.99940     4.41713    0.01068     6.42721
      H   81    0.17676      0.00000     0.82055    0.00270     0.82324
      H   82    0.21573      0.00000     0.78295    0.00132     0.78427
      H   83    0.20689      0.00000     0.79165    0.00146     0.79311
      H   84    0.16908      0.00000     0.82787    0.00306     0.83092
      H   85    0.21320      0.00000     0.78526    0.00155     0.78680
      H   86    0.20721      0.00000     0.79056    0.00222     0.79279
      C   87   -0.22650      1.99922     4.20939    0.01790     6.22650
      C   88   -0.21299      1.99921     4.19616    0.01762     6.21299
      C   89   -0.22908      1.99908     4.21124    0.01876     6.22908
      C   90   -0.00335      1.99906     3.98258    0.02171     6.00335
      C   91   -0.22387      1.99906     4.20624    0.01858     6.22387
      C   92   -0.21157      1.99922     4.19477    0.01758     6.21157
      H   93    0.22309      0.00000     0.77575    0.00116     0.77691
      H   94    0.21982      0.00000     0.77819    0.00198     0.78018
      H   95    0.22965      0.00000     0.76845    0.00190     0.77035
      C   96    0.95056      1.99912     3.00317    0.04715     5.04944
      F   97   -0.31428      1.99993     7.30608    0.00827     9.31428
      F   98   -0.30908      1.99992     7.30089    0.00827     9.30908
      F   99   -0.30775      1.99992     7.29930    0.00853     9.30775
      C  100    0.94977      1.99913     3.00346    0.04765     5.05023
      F  101   -0.31060      1.99992     7.30239    0.00829     9.31060
      F  102   -0.31112      1.99993     7.30277    0.00842     9.31112
      F  103   -0.30587      1.99992     7.29719    0.00875     9.30587
      C  104    0.94978      1.99912     3.00384    0.04726     5.05022
      F  105   -0.30652      1.99992     7.29803    0.00857     9.30652
      F  106   -0.31595      1.99993     7.30732    0.00870     9.31595
      F  107   -0.30663      1.99992     7.29837    0.00833     9.30663
      C  108    0.94981      1.99911     3.00367    0.04741     5.05019
      F  109   -0.31952      1.99993     7.31103    0.00855     9.31952
      F  110   -0.30704      1.99992     7.29855    0.00856     9.30704
      F  111   -0.30282      1.99992     7.29440    0.00850     9.30282
      C  112    0.94982      1.99913     3.00340    0.04766     5.05018
      F  113   -0.31263      1.99993     7.30422    0.00848     9.31263
      F  114   -0.30834      1.99992     7.29999    0.00842     9.30834
      F  115   -0.31282      1.99992     7.30439    0.00851     9.31282
      C  116    0.95094      1.99911     3.00285    0.04711     5.04906
      F  117   -0.31124      1.99992     7.30302    0.00830     9.31124
      F  118   -0.30901      1.99992     7.30065    0.00844     9.30901
      F  119   -0.31890      1.99993     7.31031    0.00866     9.31890
      C  120    0.95114      1.99912     3.00244    0.04729     5.04886
      F  121   -0.30732      1.99992     7.29888    0.00852     9.30732
      F  122   -0.31882      1.99993     7.31033    0.00857     9.31882
      F  123   -0.30638      1.99992     7.29760    0.00886     9.30638
      C  124    0.95188      1.99913     3.00026    0.04873     5.04812
      F  125   -0.30969      1.99992     7.30129    0.00847     9.30969
      F  126   -0.31591      1.99993     7.30724    0.00875     9.31591
      F  127   -0.30551      1.99992     7.29731    0.00828     9.30551
      H  128    0.22710      0.00000     0.77166    0.00124     0.77290
      H  129    0.22126      0.00000     0.77756    0.00119     0.77874
      H  130    0.27136      0.00000     0.72637    0.00227     0.72864
      H  131    0.25916      0.00000     0.73893    0.00190     0.74084
 =======================================================================
   * Total *   -0.00000    209.92398   476.09959    1.97643   688.00000

 1\1\GINC-NC218\SP\RPBE1PBE\Gen\C60H42F24Fe1N2P2\MACKK4\02-Dec-2021\0\\
 # PBE1PBE gen pseudo=read int=(grid=ultrafine) empiricaldispersion=GD3
 BJ pop=nbo guess=read geom=check\\M003_1_1 title\\0,1\Fe,0,-0.02075736
 06,-1.5194394682,1.6919914869\P,0,1.7968366948,-0.0940627556,-0.772003
 0544\P,0,-1.7813040832,0.2962586294,-0.540408089\C,0,1.5041010016,-1.4
 370879802,0.413507368\C,0,0.5790102525,-2.4850681115,0.0169591343\C,0,
 0.4937642092,-3.4376653067,1.0770747517\C,0,1.3395579276,-2.9934968575
 ,2.1366134057\C,0,1.9930336576,-1.7655953092,1.7521710319\C,0,-1.53212

 Normal termination of Gaussian 09 at Thu Dec  2 10:27:07 2021.
