 Gaussian 09, Revision E.01,

 ----------------------------------------------------------------------
 # PBE1PBE gen pseudo=read int=(grid=ultrafine) empiricaldispersion=GD3
 BJ nmr=giao
 ----------------------------------------------------------------------

 --------------
 M003_1_5 title
 --------------
 Symbolic Z-matrix:
 Charge =  0 Multiplicity = 1

 SCF Done:  E(RPBE1PBE) =  -5620.86944479     A.U. after   25 cycles

      1  Fe   Isotropic = -6360.3056   Anisotropy =  8100.5913

      2  P    Isotropic =   302.0390   Anisotropy =    56.2614

      3  P    Isotropic =   313.7735   Anisotropy =    33.3123

      4  C    Isotropic =   110.0551   Anisotropy =    82.6281

      5  C    Isotropic =   104.0989   Anisotropy =    73.1281

      6  C    Isotropic =   102.9796   Anisotropy =   104.5570

      7  C    Isotropic =   106.5463   Anisotropy =    95.9762

      8  C    Isotropic =    84.3841   Anisotropy =    95.6523

      9  C    Isotropic =   104.4414   Anisotropy =    85.9378

     10  C    Isotropic =    83.1943   Anisotropy =    95.4804

     11  C    Isotropic =   108.3855   Anisotropy =    94.6932

     12  C    Isotropic =   103.4430   Anisotropy =   103.6485

     13  C    Isotropic =   108.1892   Anisotropy =    77.9172

     14  C    Isotropic =    32.8352   Anisotropy =   200.9735

     15  C    Isotropic =    45.8936   Anisotropy =   198.5294

     16  C    Isotropic =    46.7092   Anisotropy =   161.7437

     17  C    Isotropic =    58.4743   Anisotropy =   183.7832

     18  C    Isotropic =    46.9317   Anisotropy =   160.7720

     19  C    Isotropic =    49.1636   Anisotropy =   190.2681

     20  C    Isotropic =    38.5058   Anisotropy =   202.6305

     21  C    Isotropic =    40.6818   Anisotropy =   204.8195

     22  C    Isotropic =    46.7204   Anisotropy =   162.6596

     23  C    Isotropic =    54.6652   Anisotropy =   191.3090

     24  C    Isotropic =    46.1682   Anisotropy =   160.8998

     25  C    Isotropic =    39.2809   Anisotropy =   193.0629

     26  C    Isotropic =    35.8252   Anisotropy =   206.6222

     27  C    Isotropic =    44.7604   Anisotropy =   190.0239

     28  C    Isotropic =    43.9391   Anisotropy =   167.8296

     29  C    Isotropic =    52.9178   Anisotropy =   194.3609

     30  C    Isotropic =    44.9942   Anisotropy =   166.2582

     31  C    Isotropic =    36.8169   Anisotropy =   204.9270

     32  C    Isotropic =    41.2000   Anisotropy =   204.5153

     33  C    Isotropic =    40.0554   Anisotropy =   207.0184

     34  C    Isotropic =    44.7520   Anisotropy =   165.5368

     35  C    Isotropic =    54.6226   Anisotropy =   191.0006

     36  C    Isotropic =    45.7746   Anisotropy =   163.2712

     37  C    Isotropic =    41.4376   Anisotropy =   190.2542

     38  H    Isotropic =    27.3410   Anisotropy =     6.7897

     39  H    Isotropic =    28.1667   Anisotropy =     4.5280

     40  H    Isotropic =    23.5855   Anisotropy =    18.5700

     41  H    Isotropic =    23.3948   Anisotropy =     9.9050

     42  H    Isotropic =    23.2950   Anisotropy =    14.6823

     43  H    Isotropic =    22.5458   Anisotropy =    12.0089

     44  H    Isotropic =    23.1009   Anisotropy =    10.1728

     45  H    Isotropic =    22.3401   Anisotropy =     8.1669

     46  H    Isotropic =    22.7129   Anisotropy =    11.7456

     47  H    Isotropic =    22.9941   Anisotropy =     9.1248

     48  H    Isotropic =    22.9689   Anisotropy =    15.1502

     49  H    Isotropic =    23.3688   Anisotropy =    15.4892

     50  H    Isotropic =    23.0609   Anisotropy =     9.8157

     51  H    Isotropic =    22.2607   Anisotropy =    11.5532

     52  C    Isotropic =   115.9985   Anisotropy =    42.2174

     53  H    Isotropic =    30.5821   Anisotropy =    17.5771

     54  H    Isotropic =    27.4749   Anisotropy =     4.4778

     55  C    Isotropic =   118.6109   Anisotropy =    41.9539

     56  H    Isotropic =    27.9908   Anisotropy =    12.7879

     57  N    Isotropic =   192.2048   Anisotropy =    55.7337

     58  C    Isotropic =   137.2222   Anisotropy =    58.5125

     59  C    Isotropic =   138.4410   Anisotropy =    63.4457

     60  H    Isotropic =    29.6550   Anisotropy =     9.7980

     61  H    Isotropic =    29.7237   Anisotropy =     7.6201

     62  H    Isotropic =    31.0511   Anisotropy =     8.3839

     63  H    Isotropic =    29.6570   Anisotropy =    12.3542

     64  H    Isotropic =    30.1362   Anisotropy =     8.3749

     65  H    Isotropic =    29.4377   Anisotropy =     6.9343

     66  C    Isotropic =    52.7204   Anisotropy =   186.4814

     67  C    Isotropic =    50.6806   Anisotropy =   188.5102

     68  C    Isotropic =    52.7573   Anisotropy =   191.0192

     69  C    Isotropic =    30.1771   Anisotropy =   206.7005

     70  C    Isotropic =    51.1412   Anisotropy =   173.2168

     71  C    Isotropic =    51.5641   Anisotropy =   188.4000

     72  H    Isotropic =    24.0599   Anisotropy =     4.6989

     73  H    Isotropic =    23.8614   Anisotropy =     4.6157

     74  H    Isotropic =    23.6085   Anisotropy =     9.8046

     75  H    Isotropic =    26.7878   Anisotropy =     6.6033

     76  H    Isotropic =    24.3286   Anisotropy =     8.0998

     77  N    Isotropic =   192.7962   Anisotropy =    58.2409

     78  H    Isotropic =    29.3834   Anisotropy =    14.7499

     79  C    Isotropic =   139.4657   Anisotropy =    61.8055

     80  C    Isotropic =   141.2405   Anisotropy =    52.8121

     81  H    Isotropic =    30.3492   Anisotropy =     7.9385

     82  H    Isotropic =    29.5370   Anisotropy =     6.5220

     83  H    Isotropic =    29.5315   Anisotropy =    12.0692

     84  H    Isotropic =    29.7565   Anisotropy =     6.2433

     85  H    Isotropic =    29.4314   Anisotropy =    10.3919

     86  H    Isotropic =    29.4058   Anisotropy =     7.3644

     87  C    Isotropic =    52.1735   Anisotropy =   186.0876

     88  C    Isotropic =    50.9058   Anisotropy =   189.3004

     89  C    Isotropic =    49.8866   Anisotropy =   174.5230

     90  C    Isotropic =    29.7719   Anisotropy =   204.9255

     91  C    Isotropic =    52.2112   Anisotropy =   191.4667

     92  C    Isotropic =    50.3585   Anisotropy =   188.8889

     93  H    Isotropic =    23.7811   Anisotropy =     3.7042

     94  H    Isotropic =    23.9423   Anisotropy =     5.8067

     95  H    Isotropic =    23.4445   Anisotropy =    10.0784

     96  C    Isotropic =    48.9213   Anisotropy =    12.4477

     97  F    Isotropic =   221.7225   Anisotropy =   147.9019

     98  F    Isotropic =   241.0759   Anisotropy =   143.6453

     99  F    Isotropic =   251.1189   Anisotropy =   125.0662

    100  C    Isotropic =    48.5393   Anisotropy =    15.5224

    101  F    Isotropic =   242.6135   Anisotropy =   141.7083

    102  F    Isotropic =   220.8917   Anisotropy =   147.7802

    103  F    Isotropic =   250.2227   Anisotropy =   135.1403

    104  C    Isotropic =    48.7338   Anisotropy =    14.8657

    105  F    Isotropic =   241.2706   Anisotropy =   139.8639

    106  F    Isotropic =   251.5744   Anisotropy =   132.9241

    107  F    Isotropic =   212.4316   Anisotropy =   139.8886

    108  C    Isotropic =    48.3037   Anisotropy =    14.4801

    109  F    Isotropic =   248.9310   Anisotropy =   134.1774

    110  F    Isotropic =   222.2077   Anisotropy =   141.6324

    111  F    Isotropic =   237.6161   Anisotropy =   143.8707

    112  C    Isotropic =    48.5204   Anisotropy =    15.9446

    113  F    Isotropic =   253.3159   Anisotropy =   133.1307

    114  F    Isotropic =   218.2841   Anisotropy =   151.0643

    115  F    Isotropic =   243.2621   Anisotropy =   141.6529

    116  C    Isotropic =    48.7640   Anisotropy =    13.8801

    117  F    Isotropic =   223.4741   Anisotropy =   143.5039

    118  F    Isotropic =   244.6928   Anisotropy =   138.5597

    119  F    Isotropic =   247.3847   Anisotropy =   138.6005

    120  C    Isotropic =    49.0334   Anisotropy =    13.9922

    121  F    Isotropic =   249.4377   Anisotropy =   136.9913

    122  F    Isotropic =   218.2186   Anisotropy =   143.6982

    123  F    Isotropic =   245.7594   Anisotropy =   135.7081

    124  C    Isotropic =    49.3584   Anisotropy =    16.9378

    125  F    Isotropic =   254.5437   Anisotropy =   126.7739

    126  F    Isotropic =   222.5463   Anisotropy =   136.7443

    127  F    Isotropic =   230.6171   Anisotropy =   151.3479

    128  H    Isotropic =    23.6500   Anisotropy =     7.2908

    129  H    Isotropic =    23.6874   Anisotropy =     5.0114

    130  H    Isotropic =    30.0197   Anisotropy =    18.2366

    131  H    Isotropic =    27.4660   Anisotropy =     4.0518

 1\1\GINC-NC205\SP\RPBE1PBE\Gen\C60H42F24Fe1N2P2\MACKK4\02-Dec-2021\0\\
 # PBE1PBE gen pseudo=read int=(grid=ultrafine) empiricaldispersion=GD3
 BJ nmr=giao\\M003_1_5 title\\0,1\Fe,0,0.0333893783,-1.6051346135,1.730
 468819\P,0,1.7989460779,-0.1256660063,-0.8145124407\P,0,-1.7624406981,
 0.2871063537,-0.441724656\C,0,1.5377256851,-1.4302520319,0.4235905305\
 C,0,0.6657731436,-2.541465774,0.0704050654\C,0,0.6826014698,-3.4836489
 003,1.1470924345\C,0,1.5272118439,-2.9641553577,2.1732449789\C,0,2.091
 5295727,-1.712060153,1.7439642252\C,0,-1.5282187337,-0.4401821272,1.22

 Normal termination of Gaussian 09 at Thu Dec  2 09:47:14 2021.
 Gaussian 09:  ES64L-G09RevE.01 30-Nov-2015

 ----------------------------------------------------------------------
 # PBE1PBE gen pseudo=read int=(grid=ultrafine) empiricaldispersion=GD3
 BJ pop=nbo guess=read geom=check
 ----------------------------------------------------------------------

 --------------
 M003_1_5 title
 --------------
 Structure from the checkpoint file:  "M003_1_5_SPE_NoPd.chk"
 Charge =  0 Multiplicity = 1

                         Standard orientation:
 ---------------------------------------------------------------------
 Center     Atomic      Atomic             Coordinates (Angstroms)
 Number     Number       Type             X           Y           Z
 ---------------------------------------------------------------------
      1         26           0       -0.108580   -1.046914    1.768188
      2         15           0        1.818750   -0.380003   -0.992894
      3         15           0       -1.749008    0.132664   -0.959742
      4          6           0        1.466737   -1.265279    0.554831
      5          6           0        0.594004   -2.428991    0.491993
      6          6           0        0.535139   -3.015539    1.795736
      7          6           0        1.333225   -2.221044    2.672128
      8          6           0        1.943467   -1.150427    1.929254
      9          6           0       -1.618411   -0.076419    0.857472
     10          6           0       -2.163448   -1.043643    1.809720
     11          6           0       -1.637267   -0.689919    3.103532
     12          6           0       -0.819901    0.470921    2.988313
     13          6           0       -0.784960    0.847945    1.611004
     14          6           0        3.328505   -1.252153   -1.584076
     15          6           0        3.591038   -2.556684   -1.141696
     16          6           0        4.758712   -3.218290   -1.549557
     17          6           0        5.664966   -2.594235   -2.412446
     18          6           0        5.389656   -1.298757   -2.872868
     19          6           0        4.228677   -0.627519   -2.470122
     20          6           0        2.426085    1.321965   -0.622577
     21          6           0        3.766297    1.602686   -0.295347
     22          6           0        4.153757    2.910705    0.024147
     23          6           0        3.215507    3.953139    0.033691
     24          6           0        1.887340    3.676647   -0.308820
     25          6           0        1.500333    2.374505   -0.660668
     26          6           0       -2.364171    1.874251   -1.014258
     27          6           0       -2.050600    2.725802   -2.088554
     28          6           0       -2.504994    4.051301   -2.078209
     29          6           0       -3.276323    4.539096   -1.014761
     30          6           0       -3.595173    3.685360    0.047474
     31          6           0       -3.137063    2.361885    0.054038
     32          6           0       -3.170963   -0.902489   -1.493224
     33          6           0       -4.498163   -0.473620   -1.365051
     34          6           0       -5.545561   -1.330990   -1.735197
     35          6           0       -5.277749   -2.609977   -2.236945
     36          6           0       -3.945950   -3.021206   -2.391620
     37          6           0       -2.895031   -2.169644   -2.033508
     38          1           0        0.057912   -2.765161   -0.397181
     39          1           0       -0.237660    1.696269    1.202290
     40          1           0        2.898268   -3.065037   -0.467271
     41          1           0        6.579249   -3.106688   -2.720323
     42          1           0        4.034039    0.380758   -2.839231
     43          1           0        4.517941    0.809156   -0.294952
     44          1           0        3.518690    4.967744    0.301683
     45          1           0        0.471439    2.177307   -0.976745
     46          1           0       -1.463906    2.349464   -2.931921
     47          1           0       -3.617615    5.577374   -1.010543
     48          1           0       -3.378329    1.717745    0.902733
     49          1           0       -4.728271    0.526800   -0.989251
     50          1           0       -6.096878   -3.275250   -2.518371
     51          1           0       -1.857093   -2.477837   -2.193009
     52          6           0        3.004926   -0.223480    2.502122
     53          1           0       -0.260728    0.944426    3.792619
     54          1           0       -1.829261   -1.251118    4.016760
     55          6           0       -3.247890   -2.100147    1.641524
     56          1           0        3.391012    0.396143    1.664926
     57          7           0        4.105935   -1.024762    3.085040
     58          6           0        4.645262   -1.990833    2.125970
     59          6           0        5.188381   -0.139919    3.533549
     60          1           0        5.467011   -2.549197    2.603184
     61          1           0        3.873952   -2.716138    1.828594
     62          1           0        5.051083   -1.512318    1.202451
     63          1           0        5.998254   -0.755905    3.957591
     64          1           0        5.613066    0.476126    2.707085
     65          1           0        4.824428    0.543711    4.315361
     66          6           0        1.287620    2.537200    5.385224
     67          6           0        1.608754    1.226269    5.774883
     68          6           0        2.179369    0.334937    4.855948
     69          6           0        2.433091    0.742403    3.533916
     70          6           0        2.133874    2.062351    3.159127
     71          6           0        1.557529    2.954962    4.073674
     72          1           0        0.838091    3.230505    6.103190
     73          1           0        1.416550    0.898077    6.801793
     74          1           0        2.458865   -0.678691    5.160428
     75          1           0        2.345400    2.391591    2.137866
     76          1           0        1.321855    3.977350    3.759876
     77          7           0       -4.379174   -1.770414    2.547918
     78          1           0       -3.579329   -2.093918    0.584028
     79          6           0       -5.496167   -2.695978    2.319083
     80          6           0       -4.865077   -0.396035    2.386287
     81          1           0       -5.924950   -2.608215    1.294931
     82          1           0       -5.167251   -3.734399    2.475683
     83          1           0       -6.297156   -2.471625    3.043370
     84          1           0       -5.285181   -0.192460    1.375559
     85          1           0       -5.671035   -0.222454    3.119108
     86          1           0       -4.061947    0.326983    2.596582
     87          6           0       -1.693931   -6.081451    2.450083
     88          6           0       -1.901559   -5.652916    1.130965
     89          6           0       -2.422281   -4.374825    0.883535
     90          6           0       -2.733326   -3.505985    1.941675
     91          6           0       -2.550912   -3.952834    3.263275
     92          6           0       -2.029826   -5.229142    3.515270
     93          1           0       -1.286882   -7.077929    2.649484
     94          1           0       -2.588043   -4.052350   -0.147097
     95          1           0       -2.851492   -3.300864    4.089239
     96          6           0       -2.192696    4.963207   -3.243938
     97          9           0       -3.226489    4.995688   -4.127172
     98          9           0       -1.984438    6.241466   -2.821568
     99          9           0       -1.087850    4.560730   -3.917148
    100          6           0       -4.359859    4.194188    1.245111
    101          9           0       -5.140861    3.215980    1.785188
    102          9           0       -3.512514    4.612938    2.226185
    103          9           0       -5.162286    5.241507    0.926751
    104          6           0       -6.969091   -0.877549   -1.519516
    105          9           0       -7.124177    0.436149   -1.825875
    106          9           0       -7.850673   -1.592249   -2.261820
    107          9           0       -7.334023   -1.023003   -0.207757
    108          6           0       -3.628609   -4.363820   -3.007102
    109          9           0       -4.655903   -5.240350   -2.859137
    110          9           0       -3.364634   -4.256304   -4.331228
    111          9           0       -2.523494   -4.921747   -2.422273
    112          6           0        5.067514   -4.568330   -0.953247
    113          9           0        5.973511   -5.259205   -1.689068
    114          9           0        5.586153   -4.434776    0.306430
    115          9           0        3.948238   -5.331960   -0.836491
    116          6           0        6.325618   -0.632268   -3.854385
    117          9           0        5.949645   -0.870308   -5.136350
    118          9           0        6.346306    0.716844   -3.678982
    119          9           0        7.600707   -1.088408   -3.712636
    120          6           0        5.573133    3.165556    0.473971
    121          9           0        5.954428    4.446163    0.241417
    122          9           0        5.695909    2.942894    1.816304
    123          9           0        6.450914    2.339788   -0.150772
    124          6           0        0.838160    4.762806   -0.311675
    125          9           0        1.280307    5.901856    0.276228
    126          9           0        0.442684    5.069879   -1.573500
    127          9           0       -0.274513    4.350448    0.369331
    128          1           0       -1.668150   -6.311926    0.288315
    129          1           0       -1.892039   -5.564513    4.548714
    130          1           0       -0.074469   -3.869466    2.083851
    131          1           0        1.449324   -2.370658    3.745111
 ---------------------------------------------------------------------

 SCF Done:  E(RPBE1PBE) =  -5620.86944479     A.U. after   10 cycles

 The electronic state is 1-A.
 Alpha  occ. eigenvalues --  -77.24034 -77.23756 -24.82752 -24.82612 -24.82521
 Alpha  occ. eigenvalues --  -24.82515 -24.82414 -24.82379 -24.82353 -24.82325
 Alpha  occ. eigenvalues --  -24.82302 -24.82257 -24.81912 -24.81896 -24.81848
 Alpha  occ. eigenvalues --  -24.81785 -24.81766 -24.81703 -24.81498 -24.81491
 Alpha  occ. eigenvalues --  -24.81416 -24.81412 -24.81393 -24.81388 -24.81286
 Alpha  occ. eigenvalues --  -24.81072 -14.39581 -14.39498 -10.50294 -10.50236
 Alpha  occ. eigenvalues --  -10.50038 -10.49874 -10.49453 -10.49313 -10.49135
 Alpha  occ. eigenvalues --  -10.49092 -10.29880 -10.29766 -10.29746 -10.29602
 Alpha  occ. eigenvalues --  -10.29221 -10.29125 -10.29071 -10.29051 -10.29030
 Alpha  occ. eigenvalues --  -10.28971 -10.28971 -10.28795 -10.28788 -10.28745
 Alpha  occ. eigenvalues --  -10.28592 -10.28471 -10.28457 -10.28389 -10.28306
 Alpha  occ. eigenvalues --  -10.28157 -10.28040 -10.27986 -10.27971 -10.27703
 Alpha  occ. eigenvalues --  -10.27651 -10.27276 -10.27182 -10.26999 -10.26937
 Alpha  occ. eigenvalues --  -10.26807 -10.25970 -10.25665 -10.25331 -10.25269
 Alpha  occ. eigenvalues --  -10.25257 -10.25217 -10.25140 -10.25059 -10.24661
 Alpha  occ. eigenvalues --  -10.24539 -10.24499 -10.24472 -10.24459 -10.24376
 Alpha  occ. eigenvalues --  -10.24372 -10.24341 -10.24324 -10.24217 -10.24206
 Alpha  occ. eigenvalues --  -10.24157 -10.24104 -10.24080  -6.63593  -6.63312
 Alpha  occ. eigenvalues --   -4.77200  -4.77171  -4.76930  -4.76883  -4.76718
 Alpha  occ. eigenvalues --   -4.76443  -3.62396  -2.26959  -2.22679  -2.22670
 Alpha  occ. eigenvalues --   -1.36140  -1.36129  -1.35877  -1.35757  -1.35313
 Alpha  occ. eigenvalues --   -1.35247  -1.35051  -1.35024  -1.27885  -1.27778
 Alpha  occ. eigenvalues --   -1.27719  -1.27576  -1.27563  -1.27459  -1.27077
 Alpha  occ. eigenvalues --   -1.27044  -1.26984  -1.26978  -1.26872  -1.26651
 Alpha  occ. eigenvalues --   -1.26613  -1.26526  -1.26508  -1.26220  -0.96613
 Alpha  occ. eigenvalues --   -0.96455  -0.94627  -0.94513  -0.93825  -0.93485
 Alpha  occ. eigenvalues --   -0.93189  -0.91714  -0.89215  -0.89172  -0.86112
 Alpha  occ. eigenvalues --   -0.85994  -0.85297  -0.84913  -0.84879  -0.84651
 Alpha  occ. eigenvalues --   -0.82924  -0.82489  -0.81224  -0.81173  -0.78006
 Alpha  occ. eigenvalues --   -0.77980  -0.76823  -0.76651  -0.76616  -0.76463
 Alpha  occ. eigenvalues --   -0.76112  -0.76086  -0.75345  -0.75299  -0.75214
 Alpha  occ. eigenvalues --   -0.75010  -0.74485  -0.74132  -0.72672  -0.72481
 Alpha  occ. eigenvalues --   -0.71122  -0.71096  -0.70294  -0.70118  -0.68449
 Alpha  occ. eigenvalues --   -0.68345  -0.67849  -0.67665  -0.67584  -0.67203
 Alpha  occ. eigenvalues --   -0.65843  -0.65627  -0.64469  -0.64404  -0.63485
 Alpha  occ. eigenvalues --   -0.63325  -0.63253  -0.63221  -0.63189  -0.63141
 Alpha  occ. eigenvalues --   -0.63080  -0.63045  -0.62756  -0.62652  -0.62579
 Alpha  occ. eigenvalues --   -0.62450  -0.62323  -0.62257  -0.62203  -0.62077
 Alpha  occ. eigenvalues --   -0.62043  -0.61926  -0.61482  -0.61284  -0.60870
 Alpha  occ. eigenvalues --   -0.60742  -0.59350  -0.59186  -0.58196  -0.58110
 Alpha  occ. eigenvalues --   -0.57406  -0.57284  -0.56724  -0.56286  -0.55790
 Alpha  occ. eigenvalues --   -0.55716  -0.55645  -0.55105  -0.55014  -0.54596
 Alpha  occ. eigenvalues --   -0.53651  -0.53347  -0.53173  -0.53065  -0.52975
 Alpha  occ. eigenvalues --   -0.52514  -0.52066  -0.51631  -0.50997  -0.50956
 Alpha  occ. eigenvalues --   -0.50815  -0.50694  -0.50650  -0.50603  -0.50497
 Alpha  occ. eigenvalues --   -0.50332  -0.50293  -0.50241  -0.50142  -0.49923
 Alpha  occ. eigenvalues --   -0.49915  -0.49851  -0.49707  -0.49673  -0.49601
 Alpha  occ. eigenvalues --   -0.49530  -0.49433  -0.49330  -0.48036  -0.47803
 Alpha  occ. eigenvalues --   -0.47759  -0.47666  -0.47448  -0.47237  -0.47109
 Alpha  occ. eigenvalues --   -0.47019  -0.46912  -0.46823  -0.46787  -0.46717
 Alpha  occ. eigenvalues --   -0.46658  -0.46637  -0.46592  -0.46567  -0.46425
 Alpha  occ. eigenvalues --   -0.46407  -0.46333  -0.46138  -0.46125  -0.45968
 Alpha  occ. eigenvalues --   -0.45821  -0.45632  -0.45488  -0.45409  -0.45350
 Alpha  occ. eigenvalues --   -0.45278  -0.45219  -0.45044  -0.44996  -0.44876
 Alpha  occ. eigenvalues --   -0.44823  -0.44710  -0.44655  -0.44515  -0.44472
 Alpha  occ. eigenvalues --   -0.44383  -0.44238  -0.44205  -0.44119  -0.44073
 Alpha  occ. eigenvalues --   -0.43999  -0.43926  -0.43790  -0.43551  -0.43157
 Alpha  occ. eigenvalues --   -0.42991  -0.42746  -0.42510  -0.42307  -0.42148
 Alpha  occ. eigenvalues --   -0.41995  -0.41693  -0.41589  -0.40988  -0.40709
 Alpha  occ. eigenvalues --   -0.40547  -0.40417  -0.40245  -0.40127  -0.39852
 Alpha  occ. eigenvalues --   -0.39569  -0.39368  -0.38984  -0.38955  -0.38797
 Alpha  occ. eigenvalues --   -0.38673  -0.38348  -0.38120  -0.37674  -0.37591
 Alpha  occ. eigenvalues --   -0.37194  -0.36755  -0.36436  -0.36242  -0.36157
 Alpha  occ. eigenvalues --   -0.35835  -0.33487  -0.32525  -0.32395  -0.32321
 Alpha  occ. eigenvalues --   -0.32204  -0.31921  -0.31607  -0.31116  -0.30925
 Alpha  occ. eigenvalues --   -0.29939  -0.29571  -0.29102  -0.28056  -0.27995
 Alpha  occ. eigenvalues --   -0.27427  -0.27201  -0.26174  -0.25926  -0.24605
 Alpha  occ. eigenvalues --   -0.24503  -0.24456  -0.24269  -0.23134
 Alpha virt. eigenvalues --   -0.08159  -0.08120  -0.07945  -0.07618  -0.06788
 Alpha virt. eigenvalues --   -0.06573  -0.06172  -0.05778  -0.03045  -0.02770
 Alpha virt. eigenvalues --   -0.02733  -0.02510  -0.01958  -0.01826  -0.00722

 Mulliken charges:
               1
     1  Fe  -1.175476
     2  P    0.045191
     3  P   -0.015637
     4  C    0.400343
     5  C   -0.338941
     6  C    0.023991
     7  C   -0.092119
     8  C    0.250522
     9  C    0.469886
    10  C    0.343652
    11  C   -0.068034
    12  C   -0.014493
    13  C   -0.247682
    14  C    0.233504
    15  C   -0.340660
    16  C    0.151331
    17  C   -0.322536
    18  C    0.184387
    19  C   -0.422057
    20  C    0.031795
    21  C   -0.224963
    22  C    0.178501
    23  C   -0.257123
    24  C    0.050393
    25  C   -0.255819
    26  C    0.125566
    27  C   -0.295357
    28  C    0.155554
    29  C   -0.297671
    30  C    0.106357
    31  C   -0.227454
    32  C    0.146638
    33  C   -0.271339
    34  C    0.130703
    35  C   -0.308278
    36  C    0.214693
    37  C   -0.381050
    38  H    0.105185
    39  H    0.161671
    40  H    0.207600
    41  H    0.166864
    42  H    0.163391
    43  H    0.198599
    44  H    0.168821
    45  H    0.203793
    46  H    0.156402
    47  H    0.164260
    48  H    0.152350
    49  H    0.183010
    50  H    0.171252
    51  H    0.175680
    52  C    0.148471
    53  H    0.141978
    54  H    0.102613
    55  C   -0.021411
    56  H   -0.119593
    57  N   -0.080678
    58  C   -0.331243
    59  C   -0.316634
    60  H    0.139098
    61  H    0.136994
    62  H    0.096974
    63  H    0.130092
    64  H    0.105735
    65  H    0.152691
    66  C   -0.121441
    67  C   -0.125290
    68  C   -0.189778
    69  C   -0.052739
    70  C   -0.115645
    71  C   -0.159197
    72  H    0.121963
    73  H    0.120198
    74  H    0.136730
    75  H    0.072409
    76  H    0.118432
    77  N   -0.074735
    78  H    0.004434
    79  C   -0.328890
    80  C   -0.334663
    81  H    0.106799
    82  H    0.154160
    83  H    0.129324
    84  H    0.087618
    85  H    0.134298
    86  H    0.159269
    87  C   -0.116909
    88  C   -0.156062
    89  C   -0.165521
    90  C   -0.023262
    91  C   -0.172652
    92  C   -0.129284
    93  H    0.122421
    94  H    0.092717
    95  H    0.138147
    96  C    0.463529
    97  F   -0.156372
    98  F   -0.167335
    99  F   -0.164016
   100  C    0.427540
   101  F   -0.162458
   102  F   -0.156538
   103  F   -0.159400
   104  C    0.439691
   105  F   -0.157346
   106  F   -0.156889
   107  F   -0.154256
   108  C    0.449608
   109  F   -0.158456
   110  F   -0.147968
   111  F   -0.166751
   112  C    0.435508
   113  F   -0.159194
   114  F   -0.158411
   115  F   -0.162776
   116  C    0.439364
   117  F   -0.154623
   118  F   -0.163633
   119  F   -0.162892
   120  C    0.435645
   121  F   -0.157599
   122  F   -0.155772
   123  F   -0.160565
   124  C    0.448310
   125  F   -0.158126
   126  F   -0.153907
   127  F   -0.168931
   128  H    0.122719
   129  H    0.120358
   130  H    0.148311
   131  H    0.110491
 Sum of Mulliken charges =  -0.00000

 Dipole moment (field-independent basis, Debye):
    X=             -1.2598    Y=             -1.6845    Z=              3.4258  Tot=              4.0201
 Quadrupole moment (field-independent basis, Debye-Ang):
   XX=           -560.3785   YY=           -540.2922   ZZ=           -525.6367
   XY=              9.8687   XZ=              6.1176   YZ=             -2.9739

 Summary of Natural Population Analysis:

                                       Natural Population
                Natural  -----------------------------------------------
    Atom  No    Charge         Core      Valence    Rydberg      Total
 -----------------------------------------------------------------------
     Fe    1   -0.28403     17.99030     8.24754    0.04619    26.28403
      P    2    0.89113      9.99764     4.08257    0.02866    14.10887
      P    3    0.86723      9.99770     4.10530    0.02977    14.13277
      C    4   -0.34956      1.99838     4.31236    0.03882     6.34956
      C    5   -0.21368      1.99864     4.19102    0.02402     6.21368
      C    6   -0.18981      1.99880     4.16661    0.02440     6.18981
      C    7   -0.20233      1.99870     4.18047    0.02316     6.20233
      C    8    0.01780      1.99861     3.94668    0.03690     5.98220
      C    9   -0.33674      1.99841     4.29956    0.03877     6.33674
      C   10    0.00991      1.99861     3.95429    0.03719     5.99009
      C   11   -0.20537      1.99870     4.18343    0.02325     6.20537
      C   12   -0.18762      1.99879     4.16452    0.02430     6.18762
      C   13   -0.21581      1.99864     4.19202    0.02515     6.21581
      C   14   -0.31583      1.99905     4.28648    0.03030     6.31583
      C   15   -0.16963      1.99903     4.15132    0.01929     6.16963
      C   16   -0.14334      1.99897     4.11941    0.02496     6.14334
      C   17   -0.16424      1.99907     4.14833    0.01684     6.16424
      C   18   -0.14194      1.99898     4.11883    0.02413     6.14194
      C   19   -0.17793      1.99905     4.16089    0.01798     6.17793
      C   20   -0.31864      1.99900     4.29063    0.02901     6.31864
      C   21   -0.17086      1.99903     4.15229    0.01954     6.17086
      C   22   -0.15043      1.99896     4.12677    0.02470     6.15043
      C   23   -0.15136      1.99906     4.13641    0.01589     6.15136
      C   24   -0.15300      1.99895     4.12975    0.02429     6.15300
      C   25   -0.16632      1.99903     4.14814    0.01915     6.16632
      C   26   -0.32679      1.99905     4.29635    0.03139     6.32679
      C   27   -0.16659      1.99904     4.14941    0.01813     6.16659
      C   28   -0.13735      1.99898     4.11376    0.02461     6.13735
      C   29   -0.14054      1.99906     4.12528    0.01620     6.14054
      C   30   -0.14664      1.99896     4.12236    0.02532     6.14664
      C   31   -0.16804      1.99902     4.14917    0.01985     6.16804
      C   32   -0.32366      1.99905     4.29330    0.03131     6.32366
      C   33   -0.15949      1.99900     4.14097    0.01952     6.15949
      C   34   -0.14480      1.99897     4.12052    0.02531     6.14480
      C   35   -0.14920      1.99906     4.13358    0.01655     6.14920
      C   36   -0.14864      1.99896     4.12528    0.02439     6.14864
      C   37   -0.16194      1.99904     4.14483    0.01807     6.16194
      H   38    0.25230      0.00000     0.74541    0.00229     0.74770
      H   39    0.25769      0.00000     0.74025    0.00207     0.74231
      H   40    0.25094      0.00000     0.74672    0.00234     0.74906
      H   41    0.25477      0.00000     0.74391    0.00132     0.74523
      H   42    0.24228      0.00000     0.75628    0.00144     0.75772
      H   43    0.25396      0.00000     0.74299    0.00305     0.74604
      H   44    0.25929      0.00000     0.73930    0.00141     0.74071
      H   45    0.24833      0.00000     0.74956    0.00211     0.75167
      H   46    0.24893      0.00000     0.74967    0.00141     0.75107
      H   47    0.25538      0.00000     0.74328    0.00134     0.74462
      H   48    0.25170      0.00000     0.74554    0.00276     0.74830
      H   49    0.24817      0.00000     0.74964    0.00219     0.75183
      H   50    0.25871      0.00000     0.73997    0.00133     0.74129
      H   51    0.24869      0.00000     0.74995    0.00136     0.75131
      C   52   -0.10840      1.99908     4.08453    0.02479     6.10840
      H   53    0.27078      0.00000     0.72690    0.00232     0.72922
      H   54    0.25674      0.00000     0.74161    0.00165     0.74326
      C   55   -0.10930      1.99908     4.08474    0.02547     6.10930
      H   56    0.20291      0.00000     0.79272    0.00436     0.79709
      N   57   -0.41022      1.99955     5.38390    0.02677     7.41022
      C   58   -0.42775      1.99941     4.41467    0.01367     6.42775
      C   59   -0.43091      1.99940     4.42144    0.01007     6.43091
      H   60    0.21312      0.00000     0.78557    0.00131     0.78688
      H   61    0.21317      0.00000     0.78502    0.00180     0.78683
      H   62    0.16438      0.00000     0.83201    0.00361     0.83562
      H   63    0.20682      0.00000     0.79171    0.00147     0.79318
      H   64    0.17522      0.00000     0.82204    0.00274     0.82478
      H   65    0.21667      0.00000     0.78197    0.00136     0.78333
      C   66   -0.22655      1.99922     4.20929    0.01804     6.22655
      C   67   -0.21331      1.99922     4.19646    0.01762     6.21331
      C   68   -0.22704      1.99906     4.20937    0.01862     6.22704
      C   69   -0.00285      1.99906     3.98163    0.02215     6.00285
      C   70   -0.22445      1.99907     4.20669    0.01869     6.22445
      C   71   -0.21222      1.99921     4.19498    0.01803     6.21222
      H   72    0.22354      0.00000     0.77530    0.00116     0.77646
      H   73    0.22184      0.00000     0.77698    0.00118     0.77816
      H   74    0.23204      0.00000     0.76604    0.00192     0.76796
      H   75    0.21708      0.00000     0.78067    0.00225     0.78292
      H   76    0.22351      0.00000     0.77519    0.00130     0.77649
      N   77   -0.41309      1.99957     5.38671    0.02682     7.41309
      H   78    0.20348      0.00000     0.79170    0.00482     0.79652
      C   79   -0.43087      1.99940     4.42061    0.01085     6.43087
      C   80   -0.42650      1.99940     4.41663    0.01048     6.42650
      H   81    0.17328      0.00000     0.82361    0.00311     0.82672
      H   82    0.21566      0.00000     0.78296    0.00138     0.78434
      H   83    0.20691      0.00000     0.79154    0.00155     0.79309
      H   84    0.16853      0.00000     0.82851    0.00295     0.83147
      H   85    0.21204      0.00000     0.78642    0.00155     0.78796
      H   86    0.20867      0.00000     0.78908    0.00225     0.79133
      C   87   -0.22674      1.99922     4.20960    0.01793     6.22674
      C   88   -0.21039      1.99921     4.19362    0.01755     6.21039
      C   89   -0.22990      1.99908     4.21203    0.01880     6.22990
      C   90   -0.00307      1.99906     3.98219    0.02182     6.00307
      C   91   -0.22698      1.99906     4.20921    0.01870     6.22698
      C   92   -0.21238      1.99922     4.19554    0.01762     6.21238
      H   93    0.22334      0.00000     0.77549    0.00117     0.77666
      H   94    0.21962      0.00000     0.77842    0.00196     0.78038
      H   95    0.23166      0.00000     0.76643    0.00191     0.76834
      C   96    0.94979      1.99913     3.00346    0.04762     5.05021
      F   97   -0.30921      1.99992     7.30096    0.00833     9.30921
      F   98   -0.31085      1.99993     7.30246    0.00846     9.31085
      F   99   -0.30776      1.99992     7.29912    0.00871     9.30776
      C  100    0.95023      1.99912     3.00346    0.04718     5.04977
      F  101   -0.31305      1.99993     7.30485    0.00828     9.31305
      F  102   -0.30894      1.99992     7.30072    0.00829     9.30894
      F  103   -0.30831      1.99992     7.29989    0.00850     9.30831
      C  104    0.94947      1.99912     3.00419    0.04722     5.05053
      F  105   -0.30679      1.99992     7.29853    0.00834     9.30679
      F  106   -0.30675      1.99992     7.29828    0.00855     9.30675
      F  107   -0.31480      1.99993     7.30656    0.00831     9.31480
      C  108    0.94998      1.99912     3.00347    0.04744     5.05002
      F  109   -0.30738      1.99992     7.29890    0.00856     9.30738
      F  110   -0.30298      1.99992     7.29457    0.00849     9.30298
      F  111   -0.31859      1.99993     7.31021    0.00846     9.31859
      C  112    0.95062      1.99911     3.00319    0.04708     5.04938
      F  113   -0.30827      1.99992     7.29983    0.00851     9.30827
      F  114   -0.31583      1.99993     7.30755    0.00835     9.31583
      F  115   -0.31047      1.99992     7.30229    0.00826     9.31047
      C  116    0.94951      1.99913     3.00366    0.04770     5.05049
      F  117   -0.30751      1.99992     7.29916    0.00843     9.30751
      F  118   -0.31210      1.99992     7.30366    0.00852     9.31210
      F  119   -0.31170      1.99993     7.30328    0.00849     9.31170
      C  120    0.94958      1.99912     3.00376    0.04754     5.05042
      F  121   -0.30678      1.99992     7.29829    0.00857     9.30678
      F  122   -0.31286      1.99993     7.30409    0.00884     9.31286
      F  123   -0.30702      1.99992     7.29851    0.00859     9.30702
      C  124    0.95076      1.99911     3.00149    0.04864     5.04924
      F  125   -0.30641      1.99992     7.29823    0.00826     9.30641
      F  126   -0.30666      1.99992     7.29828    0.00846     9.30666
      F  127   -0.31749      1.99993     7.30891    0.00865     9.31749
      H  128    0.22571      0.00000     0.77306    0.00123     0.77429
      H  129    0.22166      0.00000     0.77714    0.00119     0.77834
      H  130    0.27114      0.00000     0.72654    0.00231     0.72886
      H  131    0.25693      0.00000     0.74146    0.00162     0.74307
 =======================================================================
   * Total *    0.00000    209.92405   476.09670    1.97925   688.00000

 1\1\GINC-NC205\SP\RPBE1PBE\Gen\C60H42F24Fe1N2P2\MACKK4\02-Dec-2021\0\\
 # PBE1PBE gen pseudo=read int=(grid=ultrafine) empiricaldispersion=GD3
 BJ pop=nbo guess=read geom=check\\M003_1_5 title\\0,1\Fe,0,0.033389378
 3,-1.6051346135,1.730468819\P,0,1.7989460779,-0.1256660063,-0.81451244
 07\P,0,-1.7624406981,0.2871063537,-0.441724656\C,0,1.5377256851,-1.430
 2520319,0.4235905305\C,0,0.6657731436,-2.541465774,0.0704050654\C,0,0.
 6826014698,-3.4836489003,1.1470924345\C,0,1.5272118439,-2.9641553577,2
 .1732449789\C,0,2.0915295727,-1.712060153,1.7439642252\C,0,-1.52821873

 Normal termination of Gaussian 09 at Thu Dec  2 11:52:44 2021.
