 Gaussian 09, Revision E.01,

 ----------------------------------------------------------------------
 # PBE1PBE gen pseudo=read int=(grid=ultrafine) empiricaldispersion=GD3
 BJ nmr=giao
 ----------------------------------------------------------------------

 --------------
 M003_1_2 title
 --------------
 Symbolic Z-matrix:
 Charge =  0 Multiplicity = 1

 SCF Done:  E(RPBE1PBE) =  -6669.04779831     A.U. after   32 cycles

      1  Fe   Isotropic = -6105.6047   Anisotropy =  7685.2172

      2  P    Isotropic =   219.6210   Anisotropy =   109.5805

      3  P    Isotropic =   236.8107   Anisotropy =   148.8831

      4  C    Isotropic =   111.4591   Anisotropy =    83.4202

      5  C    Isotropic =    95.3662   Anisotropy =    80.0833

      6  C    Isotropic =   100.1789   Anisotropy =   107.6969

      7  C    Isotropic =   105.9065   Anisotropy =    85.2513

      8  C    Isotropic =    86.3987   Anisotropy =    81.2776

      9  C    Isotropic =   110.6239   Anisotropy =    77.3607

     10  C    Isotropic =    77.1352   Anisotropy =    95.7863

     11  C    Isotropic =   108.1287   Anisotropy =    93.4923

     12  C    Isotropic =   105.1204   Anisotropy =    99.8672

     13  C    Isotropic =   107.9152   Anisotropy =    81.2724

     14  C    Isotropic =    39.7485   Anisotropy =   181.0847

     15  C    Isotropic =    41.3465   Anisotropy =   203.7130

     16  C    Isotropic =    48.5308   Anisotropy =   159.6583

     17  C    Isotropic =    54.0316   Anisotropy =   190.5940

     18  C    Isotropic =    48.2306   Anisotropy =   160.1386

     19  C    Isotropic =    46.2282   Anisotropy =   200.5821

     20  C    Isotropic =    42.7143   Anisotropy =   180.7942

     21  C    Isotropic =    40.2701   Anisotropy =   210.0666

     22  C    Isotropic =    46.1882   Anisotropy =   161.2239

     23  C    Isotropic =    52.5557   Anisotropy =   193.4455

     24  C    Isotropic =    45.9479   Anisotropy =   160.9249

     25  C    Isotropic =    32.8195   Anisotropy =   191.2779

     26  C    Isotropic =    42.7213   Anisotropy =   180.9541

     27  C    Isotropic =    41.4254   Anisotropy =   200.5837

     28  C    Isotropic =    47.0693   Anisotropy =   161.0690

     29  C    Isotropic =    50.5606   Anisotropy =   196.7716

     30  C    Isotropic =    43.1603   Anisotropy =   167.8660

     31  C    Isotropic =    37.8640   Anisotropy =   206.9909

     32  C    Isotropic =    42.1290   Anisotropy =   189.3721

     33  C    Isotropic =    42.4308   Anisotropy =   204.4310

     34  C    Isotropic =    46.8281   Anisotropy =   161.6196

     35  C    Isotropic =    53.4916   Anisotropy =   192.1273

     36  C    Isotropic =    46.8445   Anisotropy =   161.9498

     37  C    Isotropic =    36.4179   Anisotropy =   199.6384

     38  H    Isotropic =    26.4921   Anisotropy =     5.8933

     39  H    Isotropic =    27.9677   Anisotropy =     8.5073

     40  H    Isotropic =    23.5793   Anisotropy =    15.4356

     41  H    Isotropic =    23.2262   Anisotropy =     9.4752

     42  H    Isotropic =    23.5591   Anisotropy =    17.6603

     43  H    Isotropic =    22.2171   Anisotropy =    10.6035

     44  H    Isotropic =    22.9745   Anisotropy =    10.9605

     45  H    Isotropic =    21.0481   Anisotropy =    13.5651

     46  H    Isotropic =    23.1424   Anisotropy =    15.5040

     47  H    Isotropic =    22.9395   Anisotropy =     8.9109

     48  H    Isotropic =    20.7545   Anisotropy =    17.5694

     49  H    Isotropic =    23.5116   Anisotropy =    15.3129

     50  H    Isotropic =    22.9815   Anisotropy =     9.2863

     51  H    Isotropic =    21.6469   Anisotropy =    15.2774

     52  Cl   Isotropic =   794.4747   Anisotropy =   406.3251

     53  Cl   Isotropic =   841.0611   Anisotropy =   549.2919

     54  Pd   Isotropic =  -153.6513   Anisotropy =   241.0568

     55  C    Isotropic =   116.0836   Anisotropy =    30.0383

     56  H    Isotropic =    27.5830   Anisotropy =    10.3554

     57  H    Isotropic =    27.3489   Anisotropy =     4.5535

     58  C    Isotropic =   117.3827   Anisotropy =    41.8757

     59  H    Isotropic =    27.1897   Anisotropy =     5.4046

     60  N    Isotropic =   201.8871   Anisotropy =    60.6031

     61  C    Isotropic =   141.0300   Anisotropy =    54.1202

     62  C    Isotropic =   144.7111   Anisotropy =    47.4956

     63  H    Isotropic =    29.6076   Anisotropy =     9.3595

     64  H    Isotropic =    29.2905   Anisotropy =    11.0094

     65  H    Isotropic =    30.4377   Anisotropy =     8.0315

     66  H    Isotropic =    30.2528   Anisotropy =     9.7516

     67  H    Isotropic =    29.7468   Anisotropy =    10.0132

     68  H    Isotropic =    29.8083   Anisotropy =     6.9921

     69  C    Isotropic =    51.0333   Anisotropy =   189.3624

     70  C    Isotropic =    51.7515   Anisotropy =   187.3978

     71  C    Isotropic =    50.7966   Anisotropy =   183.1607

     72  C    Isotropic =    40.4842   Anisotropy =   191.6522

     73  C    Isotropic =    48.0107   Anisotropy =   165.7531

     74  C    Isotropic =    50.4019   Anisotropy =   187.1848

     75  H    Isotropic =    23.7732   Anisotropy =     3.5366

     76  H    Isotropic =    23.7535   Anisotropy =     6.5886

     77  H    Isotropic =    23.9072   Anisotropy =    11.4223

     78  H    Isotropic =    24.3990   Anisotropy =     9.6930

     79  H    Isotropic =    23.8234   Anisotropy =     7.7910

     80  N    Isotropic =   189.8858   Anisotropy =    59.6529

     81  H    Isotropic =    28.9614   Anisotropy =    14.5900

     82  C    Isotropic =   139.4578   Anisotropy =    61.7933

     83  C    Isotropic =   139.6284   Anisotropy =    54.9990

     84  H    Isotropic =    30.0760   Anisotropy =     8.0486

     85  H    Isotropic =    29.5949   Anisotropy =     7.2477

     86  H    Isotropic =    29.5198   Anisotropy =    12.6350

     87  H    Isotropic =    29.5649   Anisotropy =     5.4455

     88  H    Isotropic =    29.2373   Anisotropy =    10.7227

     89  H    Isotropic =    29.3062   Anisotropy =     7.8761

     90  C    Isotropic =    51.5632   Anisotropy =   187.5013

     91  C    Isotropic =    50.4750   Anisotropy =   189.4175

     92  C    Isotropic =    52.3933   Anisotropy =   191.3625

     93  C    Isotropic =    30.4892   Anisotropy =   205.8373

     94  C    Isotropic =    49.1465   Anisotropy =   173.2023

     95  C    Isotropic =    50.7387   Anisotropy =   190.5101

     96  H    Isotropic =    23.7626   Anisotropy =     3.9101

     97  H    Isotropic =    23.6355   Anisotropy =     9.7783

     98  H    Isotropic =    24.4870   Anisotropy =     6.5662

     99  C    Isotropic =    48.5037   Anisotropy =    15.8356

    100  F    Isotropic =   221.5938   Anisotropy =   147.8076

    101  F    Isotropic =   251.0756   Anisotropy =   133.2602

    102  F    Isotropic =   237.9203   Anisotropy =   146.3195

    103  C    Isotropic =    49.0089   Anisotropy =    14.5249

    104  F    Isotropic =   224.0650   Anisotropy =   152.1159

    105  F    Isotropic =   231.7756   Anisotropy =   149.1962

    106  F    Isotropic =   252.9974   Anisotropy =   115.5663

    107  C    Isotropic =    48.8525   Anisotropy =    15.1614

    108  F    Isotropic =   234.9318   Anisotropy =   143.6013

    109  F    Isotropic =   254.9141   Anisotropy =   127.9568

    110  F    Isotropic =   216.0506   Anisotropy =   142.9660

    111  C    Isotropic =    48.4020   Anisotropy =    13.8228

    112  F    Isotropic =   217.4298   Anisotropy =   151.4495

    113  F    Isotropic =   242.8656   Anisotropy =   140.7555

    114  F    Isotropic =   248.1746   Anisotropy =   127.3541

    115  C    Isotropic =    48.9544   Anisotropy =    14.0790

    116  F    Isotropic =   218.7289   Anisotropy =   150.9694

    117  F    Isotropic =   247.6194   Anisotropy =   139.6867

    118  F    Isotropic =   246.6517   Anisotropy =   133.4631

    119  C    Isotropic =    48.4094   Anisotropy =    15.1437

    120  F    Isotropic =   247.7657   Anisotropy =   137.7681

    121  F    Isotropic =   216.7654   Anisotropy =   147.7362

    122  F    Isotropic =   246.5321   Anisotropy =   137.6693

    123  C    Isotropic =    48.5866   Anisotropy =    14.8979

    124  F    Isotropic =   240.8015   Anisotropy =   130.8897

    125  F    Isotropic =   246.3249   Anisotropy =   135.4692

    126  F    Isotropic =   214.9431   Anisotropy =   147.5671

    127  C    Isotropic =    49.8261   Anisotropy =    18.6613

    128  F    Isotropic =   228.9017   Anisotropy =   131.6687

    129  F    Isotropic =   222.2874   Anisotropy =   148.6900

    130  F    Isotropic =   255.5699   Anisotropy =   127.7289

    131  H    Isotropic =    23.7511   Anisotropy =     5.1426

    132  H    Isotropic =    23.6387   Anisotropy =     8.2312

    133  H    Isotropic =    29.7596   Anisotropy =    17.9827

    134  H    Isotropic =    27.6277   Anisotropy =     8.5489

 Normal termination of Gaussian 09 at Thu Dec  2 13:53:32 2021.
 Gaussian 09:  ES64L-G09RevE.01 30-Nov-2015

 ----------------------------------------------------------------------
 # PBE1PBE gen pseudo=read int=(grid=ultrafine) empiricaldispersion=GD3
 BJ pop=nbo guess=read geom=check
 ----------------------------------------------------------------------

 --------------
 M003_1_2 title
 --------------
 Structure from the checkpoint file:  "M003_1_2_SPE.chk"
 Charge =  0 Multiplicity = 1

                         Standard orientation:
 ---------------------------------------------------------------------
 Center     Atomic      Atomic             Coordinates (Angstroms)
 Number     Number       Type             X           Y           Z
 ---------------------------------------------------------------------
      1         26           0       -0.005884   -1.507511    1.659823
      2         15           0        1.782194   -0.049154   -0.801604
      3         15           0       -1.800590    0.297772   -0.539357
      4          6           0        1.500610   -1.413336    0.363610
      5          6           0        0.560250   -2.444008   -0.042816
      6          6           0        0.478314   -3.418638    0.996793
      7          6           0        1.343416   -3.006741    2.053945
      8          6           0        2.005525   -1.777807    1.687079
      9          6           0       -1.524759   -0.290658    1.175835
     10          6           0       -2.027544   -1.399872    1.988959
     11          6           0       -1.312533   -1.352716    3.239783
     12          6           0       -0.412374   -0.244981    3.235171
     13          6           0       -0.532902    0.412806    1.972451
     14          6           0        3.332463   -0.573279   -1.638134
     15          6           0        4.230289    0.374586   -2.160058
     16          6           0        5.414271   -0.051774   -2.773369
     17          6           0        5.706792   -1.417324   -2.891993
     18          6           0        4.797308   -2.357039   -2.393679
     19          6           0        3.611975   -1.940727   -1.771579
     20          6           0        2.262654    1.520600    0.036558
     21          6           0        3.499363    1.695412    0.686229
     22          6           0        3.813087    2.942799    1.247214
     23          6           0        2.911784    4.015740    1.172090
     24          6           0        1.693247    3.840889    0.510231
     25          6           0        1.376723    2.604814   -0.070082
     26          6           0       -2.486002    1.977384   -0.179908
     27          6           0       -3.149214    2.191116    1.039527
     28          6           0       -3.691236    3.448286    1.340654
     29          6           0       -3.556946    4.507991    0.438994
     30          6           0       -2.885560    4.295020   -0.774120
     31          6           0       -2.355628    3.039595   -1.094441
     32          6           0       -3.228197   -0.656343   -1.197859
     33          6           0       -4.550253   -0.323620   -0.877613
     34          6           0       -5.608238   -1.093749   -1.386581
     35          6           0       -5.355918   -2.185711   -2.222796
     36          6           0       -4.030069   -2.497963   -2.562589
     37          6           0       -2.969959   -1.737385   -2.058377
     38          1           0       -0.008789   -2.431371   -0.973848
     39          1           0        0.037619    1.282554    1.647757
     40          1           0        4.007147    1.441746   -2.103273
     41          1           0        6.626963   -1.743854   -3.382310
     42          1           0        2.912726   -2.690911   -1.394275
     43          1           0        4.201246    0.853428    0.746368
     44          1           0        3.169546    4.984866    1.605090
     45          1           0        0.445415    2.485207   -0.635277
     46          1           0       -3.247090    1.380141    1.764468
     47          1           0       -3.964024    5.493407    0.680292
     48          1           0       -1.855817    2.878368   -2.054304
     49          1           0       -4.770223    0.539810   -0.243548
     50          1           0       -6.183342   -2.773123   -2.627200
     51          1           0       -1.944291   -1.953037   -2.369929
     52         17           0        1.479290    0.863227   -3.808548
     53         17           0       -1.851142    0.891622   -3.616373
     54         46           0       -0.081152    0.398845   -2.097797
     55          6           0        3.072581   -1.057820    2.483742
     56          1           0        0.299990    0.002332    4.022305
     57          1           0       -1.435472   -2.071485    4.047984
     58          6           0       -3.198045   -2.347838    1.757204
     59          1           0        2.848337    0.025048    2.428322
     60          7           0        4.395661   -1.198820    1.808582
     61          6           0        5.476911   -0.599743    2.596630
     62          6           0        4.776773   -2.546607    1.387133
     63          1           0        6.359534   -0.464912    1.948364
     64          1           0        5.171019    0.385585    2.977988
     65          1           0        5.772243   -1.223110    3.468775
     66          1           0        5.615839   -2.471755    0.675912
     67          1           0        5.106886   -3.196753    2.228266
     68          1           0        3.942569   -3.040691    0.868164
     69          6           0        3.126352   -1.905013    6.758578
     70          6           0        3.390403   -2.937771    5.847482
     71          6           0        3.363840   -2.690554    4.467784
     72          6           0        3.068255   -1.403896    3.971992
     73          6           0        2.838153   -0.371274    4.901120
     74          6           0        2.855334   -0.615392    6.280829
     75          1           0        3.144490   -2.102233    7.835065
     76          1           0        3.621546   -3.944213    6.211757
     77          1           0        3.579065   -3.508770    3.774865
     78          1           0        2.661050    0.646733    4.531366
     79          1           0        2.666860    0.204062    6.982069
     80          7           0       -4.174557   -2.183813    2.865575
     81          1           0       -3.665982   -2.086033    0.786117
     82          6           0       -5.356699   -3.023624    2.628147
     83          6           0       -4.610226   -0.792698    3.020848
     84          1           0       -5.909049   -2.736790    1.704634
     85          1           0       -5.062385   -4.080860    2.548722
     86          1           0       -6.043749   -2.916929    3.484260
     87          1           0       -5.126006   -0.389252    2.118488
     88          1           0       -5.322322   -0.736883    3.861063
     89          1           0       -3.754747   -0.144743    3.266884
     90          6           0       -1.852587   -6.468268    1.405095
     91          6           0       -1.882609   -5.846421    2.664875
     92          6           0       -2.334981   -4.526532    2.792681
     93          6           0       -2.752013   -3.803886    1.659546
     94          6           0       -2.750371   -4.444278    0.410748
     95          6           0       -2.300291   -5.765572    0.277253
     96          1           0       -1.497452   -7.499302    1.308663
     97          1           0       -2.396395   -4.056990    3.778923
     98          1           0       -3.109621   -3.906367   -0.469144
     99          6           0       -4.355028    3.642296    2.681952
    100          9           0       -3.431600    3.817931    3.667593
    101          9           0       -5.176095    4.722039    2.693413
    102          9           0       -5.096607    2.549151    3.026171
    103          6           0       -2.749506    5.456899   -1.732544
    104          9           0       -3.960955    5.800813   -2.250712
    105          9           0       -2.268452    6.557095   -1.086336
    106          9           0       -1.918979    5.179956   -2.762980
    107          6           0       -7.016049   -0.735931   -0.977149
    108          9           0       -7.251871    0.593034   -1.127762
    109          9           0       -7.948073   -1.414219   -1.690309
    110          9           0       -7.224873   -1.022955    0.345671
    111          6           0       -3.744413   -3.695604   -3.437325
    112          9           0       -3.697625   -4.844834   -2.688271
    113          9           0       -4.712363   -3.876571   -4.370043
    114          9           0       -2.553624   -3.587720   -4.073081
    115          6           0        6.413025    0.974733   -3.252739
    116          9           0        7.281646    1.307755   -2.253972
    117          9           0        7.155870    0.506160   -4.289816
    118          9           0        5.805481    2.119954   -3.653381
    119          6           0        5.128570   -3.827604   -2.436651
    120          9           0        5.941764   -4.136086   -3.478101
    121          9           0        5.776278   -4.216117   -1.294364
    122          9           0        4.010169   -4.594358   -2.533443
    123          6           0        5.114339    3.126110    1.991495
    124          9           0        6.115452    2.388908    1.447947
    125          9           0        5.510191    4.423097    2.010711
    126          9           0        4.982984    2.729801    3.297420
    127          6           0        0.678398    4.956196    0.421408
    128          9           0        0.227954    5.104054   -0.851534
    129          9           0       -0.405548    4.675590    1.203424
    130          9           0        1.182823    6.145195    0.831846
    131          1           0       -1.559481   -6.397226    3.554677
    132          1           0       -2.310172   -6.238626   -0.709876
    133          1           0       -0.181761   -4.283713    1.009376
    134          1           0        1.433017   -3.496900    3.021853
 ---------------------------------------------------------------------

 SCF Done:  E(RPBE1PBE) =  -6669.04779831     A.U. after    8 cycles

 The electronic state is 1-A.
 Alpha  occ. eigenvalues -- -101.64457-101.64203 -77.30123 -77.30063 -24.83086
 Alpha  occ. eigenvalues --  -24.83000 -24.82926 -24.82762 -24.82644 -24.82540
 Alpha  occ. eigenvalues --  -24.82450 -24.82422 -24.82314 -24.82252 -24.82242
 Alpha  occ. eigenvalues --  -24.82242 -24.82116 -24.82010 -24.82000 -24.82000
 Alpha  occ. eigenvalues --  -24.81993 -24.81603 -24.81411 -24.81318 -24.81156
 Alpha  occ. eigenvalues --  -24.81051 -24.80923 -24.80856 -14.41241 -14.40562
 Alpha  occ. eigenvalues --  -10.50770 -10.50508 -10.50150 -10.50036 -10.50007
 Alpha  occ. eigenvalues --  -10.49618 -10.49069 -10.48873 -10.30584 -10.30442
 Alpha  occ. eigenvalues --  -10.30368 -10.30058 -10.30005 -10.29890 -10.29818
 Alpha  occ. eigenvalues --  -10.29799 -10.29781 -10.29709 -10.29512 -10.29440
 Alpha  occ. eigenvalues --  -10.29408 -10.29344 -10.29321 -10.29279 -10.29239
 Alpha  occ. eigenvalues --  -10.29217 -10.29183 -10.29163 -10.29099 -10.29037
 Alpha  occ. eigenvalues --  -10.28982 -10.28923 -10.28907 -10.28821 -10.28412
 Alpha  occ. eigenvalues --  -10.28393 -10.28301 -10.28207 -10.28090 -10.28050
 Alpha  occ. eigenvalues --  -10.27648 -10.27338 -10.27239 -10.27205 -10.26685
 Alpha  occ. eigenvalues --  -10.26209 -10.25793 -10.25785 -10.25753 -10.25737
 Alpha  occ. eigenvalues --  -10.25713 -10.25637 -10.25623 -10.25575 -10.25436
 Alpha  occ. eigenvalues --  -10.25270 -10.25201 -10.25115 -10.25034 -10.24938
 Alpha  occ. eigenvalues --   -9.46974  -9.46697  -7.20175  -7.19926  -7.19695
 Alpha  occ. eigenvalues --   -7.19643  -7.19413  -7.19347  -6.69234  -6.69200
 Alpha  occ. eigenvalues --   -4.82836  -4.82818  -4.82797  -4.82781  -4.82565
 Alpha  occ. eigenvalues --   -4.82539  -3.64748  -3.55033  -2.29256  -2.25094
 Alpha  occ. eigenvalues --   -2.25029  -2.22824  -2.22504  -2.19369  -1.36567
 Alpha  occ. eigenvalues --   -1.36301  -1.35957  -1.35827  -1.35815  -1.35459
 Alpha  occ. eigenvalues --   -1.34908  -1.34668  -1.28325  -1.28051  -1.27852
 Alpha  occ. eigenvalues --   -1.27766  -1.27616  -1.27598  -1.27567  -1.27252
 Alpha  occ. eigenvalues --   -1.27172  -1.27151  -1.27057  -1.26716  -1.26629
 Alpha  occ. eigenvalues --   -1.26380  -1.26215  -1.25967  -0.98029  -0.97639
 Alpha  occ. eigenvalues --   -0.95664  -0.95368  -0.94838  -0.94253  -0.93938
 Alpha  occ. eigenvalues --   -0.93684  -0.90461  -0.90120  -0.86721  -0.86169
 Alpha  occ. eigenvalues --   -0.86146  -0.85869  -0.85529  -0.85262  -0.83451
 Alpha  occ. eigenvalues --   -0.83405  -0.82865  -0.82400  -0.79443  -0.79045
 Alpha  occ. eigenvalues --   -0.78924  -0.78713  -0.78261  -0.78100  -0.77391
 Alpha  occ. eigenvalues --   -0.76694  -0.76422  -0.76090  -0.75967  -0.75558
 Alpha  occ. eigenvalues --   -0.75341  -0.75333  -0.74617  -0.74590  -0.74301
 Alpha  occ. eigenvalues --   -0.73528  -0.73105  -0.72674  -0.71950  -0.71783
 Alpha  occ. eigenvalues --   -0.69026  -0.68506  -0.68429  -0.68131  -0.67748
 Alpha  occ. eigenvalues --   -0.67587  -0.66498  -0.66402  -0.65459  -0.65371
 Alpha  occ. eigenvalues --   -0.65093  -0.64131  -0.63848  -0.63765  -0.63532
 Alpha  occ. eigenvalues --   -0.63519  -0.63307  -0.63244  -0.62882  -0.62862
 Alpha  occ. eigenvalues --   -0.62792  -0.62768  -0.62763  -0.62554  -0.62441
 Alpha  occ. eigenvalues --   -0.62405  -0.62388  -0.62075  -0.61855  -0.61811
 Alpha  occ. eigenvalues --   -0.61578  -0.61385  -0.60764  -0.60635  -0.59942
 Alpha  occ. eigenvalues --   -0.59896  -0.58054  -0.57525  -0.57132  -0.57051
 Alpha  occ. eigenvalues --   -0.56765  -0.56617  -0.56448  -0.55937  -0.55409
 Alpha  occ. eigenvalues --   -0.55254  -0.55165  -0.54917  -0.54482  -0.54021
 Alpha  occ. eigenvalues --   -0.53852  -0.53337  -0.52672  -0.52508  -0.52219
 Alpha  occ. eigenvalues --   -0.51634  -0.51451  -0.51320  -0.51105  -0.51069
 Alpha  occ. eigenvalues --   -0.50881  -0.50759  -0.50681  -0.50620  -0.50602
 Alpha  occ. eigenvalues --   -0.50415  -0.50339  -0.50263  -0.50161  -0.50069
 Alpha  occ. eigenvalues --   -0.49689  -0.49387  -0.49334  -0.49211  -0.49122
 Alpha  occ. eigenvalues --   -0.48848  -0.48764  -0.48566  -0.48421  -0.48131
 Alpha  occ. eigenvalues --   -0.48074  -0.48044  -0.47694  -0.47618  -0.47412
 Alpha  occ. eigenvalues --   -0.47322  -0.47218  -0.47189  -0.47020  -0.46963
 Alpha  occ. eigenvalues --   -0.46859  -0.46779  -0.46606  -0.46577  -0.46463
 Alpha  occ. eigenvalues --   -0.46226  -0.46125  -0.46114  -0.45980  -0.45915
 Alpha  occ. eigenvalues --   -0.45816  -0.45779  -0.45662  -0.45619  -0.45494
 Alpha  occ. eigenvalues --   -0.45337  -0.45323  -0.45282  -0.45117  -0.45058
 Alpha  occ. eigenvalues --   -0.45022  -0.45011  -0.44900  -0.44777  -0.44712
 Alpha  occ. eigenvalues --   -0.44652  -0.44639  -0.44372  -0.44340  -0.44230
 Alpha  occ. eigenvalues --   -0.44127  -0.44047  -0.43849  -0.43677  -0.43607
 Alpha  occ. eigenvalues --   -0.43359  -0.43120  -0.42941  -0.42698  -0.42404
 Alpha  occ. eigenvalues --   -0.42234  -0.41571  -0.41454  -0.41150  -0.41082
 Alpha  occ. eigenvalues --   -0.40810  -0.40731  -0.40510  -0.40451  -0.40365
 Alpha  occ. eigenvalues --   -0.40112  -0.39965  -0.39946  -0.39697  -0.39613
 Alpha  occ. eigenvalues --   -0.39507  -0.39377  -0.39013  -0.38949  -0.38241
 Alpha  occ. eigenvalues --   -0.38003  -0.37593  -0.37267  -0.37050  -0.36789
 Alpha  occ. eigenvalues --   -0.34683  -0.34505  -0.34048  -0.33422  -0.33308
 Alpha  occ. eigenvalues --   -0.32942  -0.32908  -0.32588  -0.32312  -0.31907
 Alpha  occ. eigenvalues --   -0.31716  -0.31471  -0.31370  -0.30478  -0.30137
 Alpha  occ. eigenvalues --   -0.29821  -0.29444  -0.29239  -0.28961  -0.28857
 Alpha  occ. eigenvalues --   -0.28641  -0.27876  -0.27633  -0.27093  -0.26765
 Alpha  occ. eigenvalues --   -0.26609  -0.26526  -0.26126  -0.25562  -0.25449
 Alpha virt. eigenvalues --   -0.10622  -0.09025  -0.08703  -0.08322  -0.08135
 Alpha virt. eigenvalues --   -0.07209  -0.06954  -0.06415  -0.06231  -0.04557
 Alpha virt. eigenvalues --   -0.04444  -0.03936  -0.03721  -0.03665  -0.03486

 Mulliken charges:
               1
     1  Fe  -1.249830
     2  P    0.247354
     3  P    0.088383
     4  C    0.233685
     5  C   -0.204526
     6  C    0.053070
     7  C   -0.093235
     8  C    0.359026
     9  C    0.342140
    10  C    0.382868
    11  C   -0.106939
    12  C    0.005214
    13  C   -0.162274
    14  C    0.180313
    15  C   -0.296233
    16  C    0.149124
    17  C   -0.282644
    18  C    0.082005
    19  C   -0.280900
    20  C   -0.077220
    21  C   -0.315318
    22  C    0.115301
    23  C   -0.251664
    24  C    0.068882
    25  C   -0.144153
    26  C    0.101194
    27  C   -0.183968
    28  C    0.071808
    29  C   -0.280199
    30  C    0.146585
    31  C   -0.304466
    32  C    0.161510
    33  C   -0.242173
    34  C    0.111937
    35  C   -0.238739
    36  C    0.200030
    37  C   -0.369409
    38  H    0.124562
    39  H    0.153055
    40  H    0.173681
    41  H    0.170629
    42  H    0.199281
    43  H    0.265215
    44  H    0.177429
    45  H    0.287401
    46  H    0.128992
    47  H    0.161649
    48  H    0.233095
    49  H    0.178057
    50  H    0.172335
    51  H    0.200924
    52  Cl  -0.383959
    53  Cl  -0.375377
    54  Pd  -0.001453
    55  C   -0.038335
    56  H    0.115577
    57  H    0.115589
    58  C    0.000308
    59  H    0.131948
    60  N   -0.144081
    61  C   -0.328095
    62  C   -0.340901
    63  H    0.143550
    64  H    0.149276
    65  H    0.131381
    66  H    0.142287
    67  H    0.117314
    68  H    0.142711
    69  C   -0.123708
    70  C   -0.119648
    71  C   -0.316092
    72  C    0.108639
    73  C   -0.268910
    74  C   -0.115309
    75  H    0.126030
    76  H    0.125779
    77  H    0.169215
    78  H    0.143378
    79  H    0.126609
    80  N   -0.068249
    81  H    0.020800
    82  C   -0.327020
    83  C   -0.350367
    84  H    0.113241
    85  H    0.154418
    86  H    0.131012
    87  H    0.103138
    88  H    0.139216
    89  H    0.155216
    90  C   -0.093592
    91  C   -0.146409
    92  C   -0.156828
    93  C   -0.081862
    94  C   -0.125353
    95  C   -0.180594
    96  H    0.125352
    97  H    0.133460
    98  H    0.103519
    99  C    0.429840
   100  F   -0.157833
   101  F   -0.156354
   102  F   -0.161646
   103  C    0.456644
   104  F   -0.158619
   105  F   -0.167640
   106  F   -0.151210
   107  C    0.432815
   108  F   -0.153591
   109  F   -0.155472
   110  F   -0.158151
   111  C    0.436936
   112  F   -0.162799
   113  F   -0.154753
   114  F   -0.150135
   115  C    0.432316
   116  F   -0.160855
   117  F   -0.160542
   118  F   -0.154531
   119  C    0.438133
   120  F   -0.156850
   121  F   -0.162605
   122  F   -0.161838
   123  C    0.445484
   124  F   -0.154373
   125  F   -0.153896
   126  F   -0.167574
   127  C    0.442815
   128  F   -0.154927
   129  F   -0.164792
   130  F   -0.154615
   131  H    0.122077
   132  H    0.130218
   133  H    0.151913
   134  H    0.150743
 Sum of Mulliken charges =  -0.00000

 Dipole moment (field-independent basis, Debye):
    X=              0.8970    Y=             -5.8777    Z=             11.9207  Tot=             13.3212
 Quadrupole moment (field-independent basis, Debye-Ang):
   XX=           -590.3562   YY=           -571.4595   ZZ=           -592.6274
   XY=              4.2426   XZ=             11.9823   YZ=             -3.1060

 Summary of Natural Population Analysis:

                                       Natural Population
                Natural  -----------------------------------------------
    Atom  No    Charge         Core      Valence    Rydberg      Total
 -----------------------------------------------------------------------
     Fe    1   -0.29520     17.98999     8.26109    0.04412    26.29520
      P    2    1.23733      9.99547     3.71250    0.05471    13.76267
      P    3    1.20586      9.99563     3.74366    0.05484    13.79414
      C    4   -0.37800      1.99837     4.33450    0.04513     6.37800
      C    5   -0.19245      1.99865     4.17064    0.02316     6.19245
      C    6   -0.18087      1.99880     4.15769    0.02438     6.18087
      C    7   -0.20343      1.99868     4.18220    0.02254     6.20343
      C    8    0.02284      1.99857     3.94074    0.03785     5.97716
      C    9   -0.37815      1.99841     4.33451    0.04523     6.37815
      C   10    0.03107      1.99860     3.93298    0.03735     5.96893
      C   11   -0.19706      1.99868     4.17522    0.02317     6.19706
      C   12   -0.18709      1.99877     4.16490    0.02342     6.18709
      C   13   -0.19902      1.99864     4.17613    0.02424     6.19902
      C   14   -0.32723      1.99899     4.29205    0.03619     6.32723
      C   15   -0.12705      1.99902     4.10939    0.01863     6.12705
      C   16   -0.14807      1.99897     4.12450    0.02460     6.14807
      C   17   -0.13832      1.99907     4.12307    0.01618     6.13832
      C   18   -0.15161      1.99897     4.12751    0.02513     6.15161
      C   19   -0.15168      1.99901     4.13304    0.01963     6.15168
      C   20   -0.35858      1.99899     4.32647    0.03312     6.35858
      C   21   -0.16552      1.99903     4.14490    0.02159     6.16552
      C   22   -0.15321      1.99897     4.12966    0.02458     6.15321
      C   23   -0.13225      1.99907     4.11702    0.01617     6.13225
      C   24   -0.14814      1.99896     4.12468    0.02450     6.14814
      C   25   -0.14270      1.99903     4.12489    0.01878     6.14270
      C   26   -0.35475      1.99901     4.32140    0.03435     6.35475
      C   27   -0.16946      1.99902     4.14991    0.02053     6.16946
      C   28   -0.15195      1.99896     4.12786    0.02513     6.15195
      C   29   -0.12586      1.99906     4.11086    0.01593     6.12586
      C   30   -0.13430      1.99898     4.11066    0.02466     6.13430
      C   31   -0.14801      1.99904     4.13014    0.01883     6.14801
      C   32   -0.33360      1.99900     4.29869    0.03591     6.33360
      C   33   -0.15931      1.99900     4.13992    0.02039     6.15931
      C   34   -0.14612      1.99897     4.12198    0.02516     6.14612
      C   35   -0.13810      1.99907     4.12297    0.01606     6.13810
      C   36   -0.15241      1.99897     4.12761    0.02583     6.15241
      C   37   -0.12927      1.99902     4.11306    0.01720     6.12927
      H   38    0.26000      0.00000     0.73768    0.00232     0.74000
      H   39    0.25840      0.00000     0.73946    0.00214     0.74160
      H   40    0.25585      0.00000     0.74259    0.00157     0.74415
      H   41    0.25568      0.00000     0.74301    0.00132     0.74432
      H   42    0.24728      0.00000     0.75066    0.00206     0.75272
      H   43    0.28085      0.00000     0.71653    0.00262     0.71915
      H   44    0.26072      0.00000     0.73798    0.00130     0.73928
      H   45    0.25629      0.00000     0.74161    0.00210     0.74371
      H   46    0.24957      0.00000     0.74776    0.00267     0.75043
      H   47    0.25568      0.00000     0.74297    0.00135     0.74432
      H   48    0.28520      0.00000     0.71323    0.00156     0.71480
      H   49    0.24763      0.00000     0.75014    0.00223     0.75237
      H   50    0.25900      0.00000     0.73966    0.00134     0.74100
      H   51    0.25606      0.00000     0.74258    0.00135     0.74394
     Cl   52   -0.36029      9.99962     7.35165    0.00902    17.36029
     Cl   53   -0.39017      9.99962     7.38242    0.00813    17.39017
     Pd   54   -0.20973     35.98918    10.19330    0.02725    46.20973
      C   55   -0.09707      1.99908     4.07237    0.02563     6.09707
      H   56    0.26170      0.00000     0.73603    0.00227     0.73830
      H   57    0.26257      0.00000     0.73583    0.00159     0.73743
      C   58   -0.11261      1.99909     4.08821    0.02532     6.11261
      H   59    0.21932      0.00000     0.77761    0.00307     0.78068
      N   60   -0.42924      1.99957     5.40360    0.02607     7.42924
      C   61   -0.43960      1.99941     4.42714    0.01305     6.43960
      C   62   -0.43163      1.99939     4.41858    0.01366     6.43163
      H   63    0.21332      0.00000     0.78525    0.00142     0.78668
      H   64    0.21244      0.00000     0.78649    0.00107     0.78756
      H   65    0.18583      0.00000     0.81099    0.00318     0.81417
      H   66    0.21814      0.00000     0.78048    0.00139     0.78186
      H   67    0.17592      0.00000     0.82166    0.00243     0.82408
      H   68    0.21211      0.00000     0.78626    0.00162     0.78789
      C   69   -0.21260      1.99922     4.19560    0.01778     6.21260
      C   70   -0.20455      1.99922     4.18750    0.01783     6.20455
      C   71   -0.23234      1.99909     4.21415    0.01910     6.23234
      C   72   -0.02956      1.99906     4.00928    0.02122     6.02956
      C   73   -0.22257      1.99912     4.20512    0.01834     6.22257
      C   74   -0.20517      1.99921     4.18849    0.01747     6.20517
      H   75    0.22323      0.00000     0.77564    0.00113     0.77677
      H   76    0.22225      0.00000     0.77659    0.00116     0.77775
      H   77    0.22224      0.00000     0.77566    0.00209     0.77776
      H   78    0.21564      0.00000     0.78287    0.00150     0.78436
      H   79    0.22361      0.00000     0.77521    0.00118     0.77639
      N   80   -0.41203      1.99956     5.38580    0.02667     7.41203
      H   81    0.20846      0.00000     0.78691    0.00462     0.79154
      C   82   -0.43293      1.99940     4.42341    0.01012     6.43293
      C   83   -0.42986      1.99940     4.41722    0.01324     6.42986
      H   84    0.17970      0.00000     0.81768    0.00262     0.82030
      H   85    0.21646      0.00000     0.78223    0.00131     0.78354
      H   86    0.20833      0.00000     0.79023    0.00144     0.79167
      H   87    0.17166      0.00000     0.82565    0.00269     0.82834
      H   88    0.21609      0.00000     0.78257    0.00133     0.78391
      H   89    0.20411      0.00000     0.79400    0.00189     0.79589
      C   90   -0.22461      1.99922     4.20756    0.01783     6.22461
      C   91   -0.21259      1.99922     4.19578    0.01759     6.21259
      C   92   -0.22421      1.99906     4.20663    0.01853     6.22421
      C   93   -0.00809      1.99906     3.98734    0.02169     6.00809
      C   94   -0.22827      1.99908     4.21035    0.01884     6.22827
      C   95   -0.21136      1.99921     4.19455    0.01759     6.21136
      H   96    0.22464      0.00000     0.77420    0.00115     0.77536
      H   97    0.22781      0.00000     0.77030    0.00188     0.77219
      H   98    0.22362      0.00000     0.77444    0.00194     0.77638
      C   99    0.95157      1.99912     3.00218    0.04713     5.04843
      F  100   -0.30980      1.99992     7.30161    0.00826     9.30980
      F  101   -0.30588      1.99992     7.29741    0.00854     9.30588
      F  102   -0.31466      1.99993     7.30650    0.00824     9.31466
      C  103    0.94969      1.99913     3.00360    0.04757     5.05031
      F  104   -0.30924      1.99992     7.30104    0.00828     9.30924
      F  105   -0.31286      1.99993     7.30457    0.00837     9.31286
      F  106   -0.29776      1.99992     7.28900    0.00884     9.29776
      C  107    0.95076      1.99912     3.00284    0.04729     5.04924
      F  108   -0.30537      1.99992     7.29710    0.00835     9.30537
      F  109   -0.30513      1.99992     7.29661    0.00860     9.30513
      F  110   -0.31799      1.99993     7.30939    0.00867     9.31799
      C  111    0.95085      1.99912     3.00267    0.04736     5.04915
      F  112   -0.32152      1.99993     7.31319    0.00840     9.32152
      F  113   -0.30442      1.99992     7.29593    0.00856     9.30442
      F  114   -0.30073      1.99992     7.29206    0.00875     9.30073
      C  115    0.95052      1.99913     3.00268    0.04766     5.04948
      F  116   -0.31356      1.99993     7.30531    0.00833     9.31356
      F  117   -0.30889      1.99992     7.30042    0.00855     9.30889
      F  118   -0.30465      1.99992     7.29608    0.00864     9.30465
      C  119    0.95137      1.99912     3.00234    0.04718     5.04863
      F  120   -0.30637      1.99992     7.29791    0.00854     9.30637
      F  121   -0.31884      1.99993     7.31036    0.00856     9.31884
      F  122   -0.30973      1.99992     7.30150    0.00831     9.30973
      C  123    0.95141      1.99912     3.00224    0.04722     5.04859
      F  124   -0.30445      1.99992     7.29565    0.00887     9.30445
      F  125   -0.30444      1.99992     7.29596    0.00855     9.30444
      F  126   -0.31916      1.99993     7.31071    0.00852     9.31916
      C  127    0.95209      1.99913     3.00052    0.04826     5.04791
      F  128   -0.30280      1.99992     7.29433    0.00855     9.30280
      F  129   -0.31542      1.99993     7.30687    0.00863     9.31542
      F  130   -0.30390      1.99992     7.29577    0.00821     9.30390
      H  131    0.22221      0.00000     0.77661    0.00118     0.77779
      H  132    0.23073      0.00000     0.76805    0.00122     0.76927
      H  133    0.27700      0.00000     0.72072    0.00229     0.72300
      H  134    0.26469      0.00000     0.73343    0.00188     0.73531
 =======================================================================
   * Total *    0.00000    265.90770   499.98886    2.10344   768.00000

 Normal termination of Gaussian 09 at Thu Dec  2 15:47:39 2021.
