 Gaussian 09, Revision E.01,

 ----------------------------------------------------------------------
 # PBE1PBE gen pseudo=read int=(grid=ultrafine) empiricaldispersion=GD3
 BJ nmr=giao
 ----------------------------------------------------------------------

 --------------
 M003_1_3 title
 --------------
 Symbolic Z-matrix:
 Charge =  0 Multiplicity = 1

 SCF Done:  E(RPBE1PBE) =  -5620.86644059     A.U. after   28 cycles

      1  Fe   Isotropic = -6109.5035   Anisotropy =  7772.6857

      2  P    Isotropic =   296.8386   Anisotropy =    50.3794

      3  P    Isotropic =   309.8146   Anisotropy =    38.5446

      4  C    Isotropic =   112.1802   Anisotropy =    78.2623

      5  C    Isotropic =    97.5236   Anisotropy =    78.2935

      6  C    Isotropic =   102.2222   Anisotropy =   105.5096

      7  C    Isotropic =   105.0388   Anisotropy =    87.1389

      8  C    Isotropic =    92.2838   Anisotropy =    81.7373

      9  C    Isotropic =   106.0091   Anisotropy =    83.3039

     10  C    Isotropic =    81.0415   Anisotropy =    94.3899

     11  C    Isotropic =   107.9656   Anisotropy =    93.6388

     12  C    Isotropic =   106.0586   Anisotropy =    99.2692

     13  C    Isotropic =   108.0364   Anisotropy =    81.5738

     14  C    Isotropic =    30.0658   Anisotropy =   203.8683

     15  C    Isotropic =    50.3196   Anisotropy =   189.2132

     16  C    Isotropic =    46.8165   Anisotropy =   161.3699

     17  C    Isotropic =    58.1720   Anisotropy =   183.1837

     18  C    Isotropic =    47.8280   Anisotropy =   160.8413

     19  C    Isotropic =    49.1107   Anisotropy =   194.6398

     20  C    Isotropic =    37.4107   Anisotropy =   203.0201

     21  C    Isotropic =    37.5719   Anisotropy =   209.9524

     22  C    Isotropic =    45.4479   Anisotropy =   162.9185

     23  C    Isotropic =    54.5021   Anisotropy =   191.4337

     24  C    Isotropic =    46.8928   Anisotropy =   160.5439

     25  C    Isotropic =    37.9964   Anisotropy =   190.6982

     26  C    Isotropic =    36.1320   Anisotropy =   206.4197

     27  C    Isotropic =    37.4664   Anisotropy =   203.3931

     28  C    Isotropic =    45.0097   Anisotropy =   165.2155

     29  C    Isotropic =    52.7412   Anisotropy =   194.5543

     30  C    Isotropic =    43.9265   Anisotropy =   167.8929

     31  C    Isotropic =    46.0641   Anisotropy =   189.6910

     32  C    Isotropic =    41.1552   Anisotropy =   204.2744

     33  C    Isotropic =    38.5485   Anisotropy =   207.8654

     34  C    Isotropic =    45.2278   Anisotropy =   164.4901

     35  C    Isotropic =    54.6360   Anisotropy =   191.2003

     36  C    Isotropic =    46.3204   Anisotropy =   163.0697

     37  C    Isotropic =    42.4171   Anisotropy =   189.6046

     38  H    Isotropic =    27.0201   Anisotropy =     6.5418

     39  H    Isotropic =    28.0311   Anisotropy =     9.5769

     40  H    Isotropic =    23.9899   Anisotropy =    15.5120

     41  H    Isotropic =    23.5509   Anisotropy =     9.6062

     42  H    Isotropic =    23.6034   Anisotropy =    17.7171

     43  H    Isotropic =    22.1924   Anisotropy =    10.0240

     44  H    Isotropic =    23.1041   Anisotropy =    11.0473

     45  H    Isotropic =    22.2551   Anisotropy =     9.6949

     46  H    Isotropic =    22.8778   Anisotropy =    15.4777

     47  H    Isotropic =    23.0384   Anisotropy =     9.1034

     48  H    Isotropic =    22.7193   Anisotropy =    12.2460

     49  H    Isotropic =    23.2527   Anisotropy =    15.3629

     50  H    Isotropic =    23.0195   Anisotropy =     9.7366

     51  H    Isotropic =    22.2305   Anisotropy =    11.9549

     52  C    Isotropic =   116.0051   Anisotropy =    29.9598

     53  H    Isotropic =    27.7705   Anisotropy =    10.4185

     54  H    Isotropic =    27.4789   Anisotropy =     3.9680

     55  C    Isotropic =   116.7809   Anisotropy =    41.2213

     56  H    Isotropic =    27.0981   Anisotropy =     5.6409

     57  N    Isotropic =   202.8793   Anisotropy =    57.8598

     58  C    Isotropic =   140.7081   Anisotropy =    54.5803

     59  C    Isotropic =   145.1927   Anisotropy =    48.1126

     60  H    Isotropic =    29.5933   Anisotropy =     9.2498

     61  H    Isotropic =    29.2207   Anisotropy =    11.3843

     62  H    Isotropic =    30.4316   Anisotropy =     7.5403

     63  H    Isotropic =    29.9605   Anisotropy =    11.2194

     64  H    Isotropic =    29.7570   Anisotropy =     9.5782

     65  H    Isotropic =    29.5015   Anisotropy =     7.1432

     66  C    Isotropic =    51.8097   Anisotropy =   188.1540

     67  C    Isotropic =    52.1412   Anisotropy =   186.2059

     68  C    Isotropic =    50.7669   Anisotropy =   183.2494

     69  C    Isotropic =    39.4494   Anisotropy =   193.4732

     70  C    Isotropic =    47.7412   Anisotropy =   166.4932

     71  C    Isotropic =    50.6905   Anisotropy =   186.4148

     72  H    Isotropic =    23.8238   Anisotropy =     3.6118

     73  H    Isotropic =    23.7769   Anisotropy =     6.3353

     74  H    Isotropic =    23.8455   Anisotropy =    10.8840

     75  H    Isotropic =    24.3986   Anisotropy =     9.0237

     76  H    Isotropic =    23.8575   Anisotropy =     7.5550

     77  N    Isotropic =   190.4670   Anisotropy =    57.6515

     78  H    Isotropic =    29.0424   Anisotropy =    14.1070

     79  C    Isotropic =   139.2248   Anisotropy =    61.8917

     80  C    Isotropic =   139.2783   Anisotropy =    54.9730

     81  H    Isotropic =    30.0913   Anisotropy =     8.2339

     82  H    Isotropic =    29.5656   Anisotropy =     6.8160

     83  H    Isotropic =    29.5168   Anisotropy =    12.2275

     84  H    Isotropic =    29.5634   Anisotropy =     5.8889

     85  H    Isotropic =    29.2569   Anisotropy =    10.3484

     86  H    Isotropic =    29.1743   Anisotropy =     7.7522

     87  C    Isotropic =    52.0897   Anisotropy =   186.4960

     88  C    Isotropic =    50.4954   Anisotropy =   189.1875

     89  C    Isotropic =    51.9815   Anisotropy =   191.8241

     90  C    Isotropic =    29.4825   Anisotropy =   207.0571

     91  C    Isotropic =    49.3517   Anisotropy =   171.1140

     92  C    Isotropic =    51.2349   Anisotropy =   188.9322

     93  H    Isotropic =    23.8073   Anisotropy =     3.7157

     94  H    Isotropic =    23.5951   Anisotropy =     9.5044

     95  H    Isotropic =    24.5815   Anisotropy =     6.0915

     96  C    Isotropic =    48.4048   Anisotropy =    16.0053

     97  F    Isotropic =   252.4530   Anisotropy =   131.9110

     98  F    Isotropic =   237.9844   Anisotropy =   146.3767

     99  F    Isotropic =   221.5775   Anisotropy =   147.4338

    100  C    Isotropic =    48.9162   Anisotropy =    12.2317

    101  F    Isotropic =   257.1317   Anisotropy =   115.4024

    102  F    Isotropic =   224.2575   Anisotropy =   151.4475

    103  F    Isotropic =   231.2735   Anisotropy =   149.7792

    104  C    Isotropic =    48.7931   Anisotropy =    15.4056

    105  F    Isotropic =   255.5155   Anisotropy =   127.5139

    106  F    Isotropic =   215.2820   Anisotropy =   142.5931

    107  F    Isotropic =   235.3174   Anisotropy =   143.7388

    108  C    Isotropic =    48.3827   Anisotropy =    12.8994

    109  F    Isotropic =   216.5024   Anisotropy =   151.9754

    110  F    Isotropic =   242.7707   Anisotropy =   140.0286

    111  F    Isotropic =   250.1885   Anisotropy =   128.5949

    112  C    Isotropic =    48.7821   Anisotropy =    14.1692

    113  F    Isotropic =   245.7975   Anisotropy =   138.1516

    114  F    Isotropic =   247.3847   Anisotropy =   139.5261

    115  F    Isotropic =   223.2889   Anisotropy =   144.0675

    116  C    Isotropic =    48.3377   Anisotropy =    14.6258

    117  F    Isotropic =   217.5932   Anisotropy =   151.1468

    118  F    Isotropic =   252.7659   Anisotropy =   128.1309

    119  F    Isotropic =   241.8014   Anisotropy =   143.9424

    120  C    Isotropic =    48.4898   Anisotropy =    14.7327

    121  F    Isotropic =   242.0534   Anisotropy =   130.3685

    122  F    Isotropic =   247.6566   Anisotropy =   135.3262

    123  F    Isotropic =   215.0008   Anisotropy =   147.5829

    124  C    Isotropic =    49.6376   Anisotropy =    17.0425

    125  F    Isotropic =   256.4680   Anisotropy =   126.1921

    126  F    Isotropic =   231.5728   Anisotropy =   132.3505

    127  F    Isotropic =   223.0058   Anisotropy =   149.8866

    128  H    Isotropic =    23.7429   Anisotropy =     5.0169

    129  H    Isotropic =    23.7058   Anisotropy =     7.8348

    130  H    Isotropic =    29.9204   Anisotropy =    18.2332

    131  H    Isotropic =    27.6247   Anisotropy =     7.7917

 1\1\GINC-NC211\SP\RPBE1PBE\Gen\C60H42F24Fe1N2P2\MACKK4\02-Dec-2021\0\\
 # PBE1PBE gen pseudo=read int=(grid=ultrafine) empiricaldispersion=GD3
 BJ nmr=giao\\M003_1_3 title\\0,1\Fe,0,-0.007848362,-1.4974359897,1.676
 8757416\P,0,1.7984512787,-0.0735216738,-0.7894203292\P,0,-1.7838977129
 ,0.2983138221,-0.5452403664\C,0,1.5083812263,-1.4256009952,0.387711300
 9\C,0,0.5655989362,-2.4559411688,-0.0129331377\C,0,0.4714419934,-3.417
 7814407,1.0372982665\C,0,1.3304094609,-2.9975079598,2.0962437543\C,0,2
 .0007641796,-1.7755981143,1.7203500694\C,0,-1.5193981296,-0.2786729104

 Normal termination of Gaussian 09 at Thu Dec  2 09:36:13 2021.
 Gaussian 09:  ES64L-G09RevE.01 30-Nov-2015

 ----------------------------------------------------------------------
 # PBE1PBE gen pseudo=read int=(grid=ultrafine) empiricaldispersion=GD3
 BJ pop=nbo guess=read geom=check
 ----------------------------------------------------------------------

 --------------
 M003_1_3 title
 --------------
 Structure from the checkpoint file:  "M003_1_3_SPE_NoPd.chk"
 Charge =  0 Multiplicity = 1

                         Standard orientation:
 ---------------------------------------------------------------------
 Center     Atomic      Atomic             Coordinates (Angstroms)
 Number     Number       Type             X           Y           Z
 ---------------------------------------------------------------------
      1         26           0       -0.041260   -1.388237    1.403381
      2         15           0        1.778947   -0.057401   -1.104326
      3         15           0       -1.804511    0.324056   -0.893545
      4          6           0        1.481945   -1.364718    0.120669
      5          6           0        0.540904   -2.409030   -0.246496
      6          6           0        0.440664   -3.331139    0.838241
      7          6           0        1.294075   -2.871980    1.885468
      8          6           0        1.966970   -1.665039    1.468045
      9          6           0       -1.549559   -0.188626    0.848661
     10          6           0       -2.065963   -1.258210    1.705310
     11          6           0       -1.364422   -1.157051    2.960521
     12          6           0       -0.459763   -0.054013    2.916195
     13          6           0       -0.563717    0.546330    1.623896
     14          6           0        3.344025   -0.600422   -1.898413
     15          6           0        4.190147    0.332843   -2.522478
     16          6           0        5.388841   -0.095489   -3.106820
     17          6           0        5.749663   -1.448652   -3.084590
     18          6           0        4.895586   -2.375911   -2.474349
     19          6           0        3.692688   -1.958645   -1.889714
     20          6           0        2.254747    1.548000   -0.332349
     21          6           0        3.493431    1.748303    0.306486
     22          6           0        3.809481    3.016919    0.815613
     23          6           0        2.909698    4.087357    0.696553
     24          6           0        1.690496    3.887265    0.043428
     25          6           0        1.370724    2.628047   -0.483416
     26          6           0       -2.487673    2.020060   -0.616424
     27          6           0       -3.164908    2.288889    0.584276
     28          6           0       -3.705394    3.559850    0.823939
     29          6           0       -3.555438    4.579057   -0.120896
     30          6           0       -2.869733    4.311385   -1.315013
     31          6           0       -2.341205    3.041307   -1.574081
     32          6           0       -3.228438   -0.655463   -1.522775
     33          6           0       -4.552607   -0.304159   -1.232762
     34          6           0       -5.607864   -1.093662   -1.717227
     35          6           0       -5.350589   -2.223620   -2.499647
     36          6           0       -4.022239   -2.555518   -2.809933
     37          6           0       -2.964852   -1.776259   -2.329223
     38          1           0       -0.015690   -2.439500   -1.184556
     39          1           0        0.013053    1.399360    1.267704
     40          1           0        3.924265    1.391129   -2.553134
     41          1           0        6.689902   -1.775482   -3.535908
     42          1           0        3.037675   -2.697274   -1.422829
     43          1           0        4.197089    0.911289    0.397495
     44          1           0        3.169494    5.073253    1.088540
     45          1           0        0.438595    2.486287   -1.042028
     46          1           0       -3.274993    1.510542    1.342458
     47          1           0       -3.961313    5.575477    0.072455
     48          1           0       -1.830149    2.836775   -2.519619
     49          1           0       -4.776368    0.588422   -0.641884
     50          1           0       -6.175770   -2.826165   -2.885967
     51          1           0       -1.936661   -2.009675   -2.619003
     52          6           0        3.030387   -0.912670    2.238826
     53          1           0        0.245342    0.225948    3.698971
     54          1           0       -1.499378   -1.837798    3.799190
     55          6           0       -3.237589   -2.211844    1.504404
     56          1           0        2.830509    0.166995    2.100380
     57          7           0        4.363651   -1.127880    1.604862
     58          6           0        5.437043   -0.474770    2.360053
     59          6           0        4.733966   -2.515085    1.322725
     60          1           0        6.334267   -0.407435    1.721272
     61          1           0        5.137203    0.543063    2.649237
     62          1           0        5.707215   -1.023408    3.288967
     63          1           0        5.583232   -2.521786    0.619877
     64          1           0        5.044258   -3.081609    2.229286
     65          1           0        3.899371   -3.049610    0.844980
     66          6           0        2.978037   -1.433126    6.566413
     67          6           0        3.229446   -2.539643    5.742713
     68          6           0        3.236614   -2.398992    4.347782
     69          6           0        2.987426   -1.147053    3.748350
     70          6           0        2.770429   -0.039839    4.591260
     71          6           0        2.754313   -0.177118    5.985621
     72          1           0        2.969774   -1.547269    7.654962
     73          1           0        3.424560   -3.520985    6.187652
     74          1           0        3.443268   -3.274009    3.725517
     75          1           0        2.630793    0.951317    4.141155
     76          1           0        2.576897    0.699007    6.617846
     77          7           0       -4.224845   -1.994469    2.593974
     78          1           0       -3.694378   -1.992737    0.517601
     79          6           0       -5.407667   -2.840230    2.382536
     80          6           0       -4.656737   -0.596305    2.681476
     81          1           0       -5.949525   -2.593714    1.441350
     82          1           0       -5.116576   -3.900945    2.354075
     83          1           0       -6.102990   -2.692631    3.225803
     84          1           0       -5.161102   -0.232328    1.756193
     85          1           0       -5.377664   -0.500107    3.510424
     86          1           0       -3.801441    0.059179    2.907418
     87          6           0       -1.906307   -6.349330    1.353950
     88          6           0       -1.946170   -5.670586    2.583736
     89          6           0       -2.393900   -4.344431    2.646701
     90          6           0       -2.796521   -3.672477    1.477706
     91          6           0       -2.785392   -4.369244    0.259553
     92          6           0       -2.339757   -5.696987    0.190855
     93          1           0       -1.554758   -7.385075    1.308158
     94          1           0       -2.463210   -3.830366    3.609940
     95          1           0       -3.133700   -3.870670   -0.647432
     96          6           0       -4.384702    3.814332    2.147253
     97          9           0       -5.201325    4.896539    2.101666
     98          9           0       -5.134980    2.739909    2.529406
     99          9           0       -3.472605    4.029286    3.135645
    100          6           0       -2.716691    5.430085   -2.321031
    101          9           0       -1.870975    5.107041   -3.325500
    102          9           0       -3.919184    5.752807   -2.872442
    103          9           0       -2.243090    6.556721   -1.716244
    104          6           0       -7.018721   -0.712987   -1.340190
    105          9           0       -7.945397   -1.419595   -2.032524
    106          9           0       -7.243377   -0.939412   -0.008217
    107          9           0       -7.247739    0.608628   -1.553117
    108          6           0       -3.731969   -3.792644   -3.626271
    109          9           0       -3.703045   -4.907576   -2.826161
    110          9           0       -4.688100   -4.009452   -4.563531
    111          9           0       -2.531866   -3.720148   -4.249309
    112          6           0        6.266122    0.906937   -3.819068
    113          9           0        6.190316    2.134468   -3.236023
    114          9           0        7.572524    0.522493   -3.805999
    115          9           0        5.899783    1.051599   -5.118063
    116          6           0        5.326992   -3.816602   -2.367425
    117          9           0        6.242297   -3.978874   -1.361606
    118          9           0        4.284190   -4.643998   -2.092535
    119          9           0        5.919752   -4.251428   -3.508664
    120          6           0        5.109756    3.228936    1.553683
    121          9           0        6.107610    2.457810    1.052789
    122          9           0        5.514682    4.522338    1.508405
    123          9           0        4.970575    2.900499    2.877604
    124          6           0        0.678836    5.000419   -0.094619
    125          9           0        1.180348    6.201902    0.281358
    126          9           0        0.243805    5.105944   -1.377208
    127          9           0       -0.414762    4.747473    0.683243
    128          1           0       -1.634440   -6.181560    3.500950
    129          1           0       -2.341971   -6.214410   -0.773800
    130          1           0       -0.224083   -4.191439    0.884460
    131          1           0        1.367243   -3.314596    2.877278
 ---------------------------------------------------------------------

 SCF Done:  E(RPBE1PBE) =  -5620.86644059     A.U. after    7 cycles

 The electronic state is 1-A.
 Alpha  occ. eigenvalues --  -77.24081 -77.23180 -24.82873 -24.82630 -24.82620
 Alpha  occ. eigenvalues --  -24.82380 -24.82261 -24.82217 -24.82164 -24.82131
 Alpha  occ. eigenvalues --  -24.82103 -24.81970 -24.81943 -24.81903 -24.81878
 Alpha  occ. eigenvalues --  -24.81800 -24.81696 -24.81505 -24.81438 -24.81293
 Alpha  occ. eigenvalues --  -24.81231 -24.81128 -24.81125 -24.81047 -24.80929
 Alpha  occ. eigenvalues --  -24.80903 -14.39866 -14.39660 -10.50340 -10.50076
 Alpha  occ. eigenvalues --  -10.49866 -10.49760 -10.49437 -10.49174 -10.48902
 Alpha  occ. eigenvalues --  -10.48709 -10.29921 -10.29796 -10.29306 -10.29292
 Alpha  occ. eigenvalues --  -10.29269 -10.29050 -10.28994 -10.28945 -10.28898
 Alpha  occ. eigenvalues --  -10.28817 -10.28791 -10.28494 -10.28439 -10.28438
 Alpha  occ. eigenvalues --  -10.28365 -10.28281 -10.28241 -10.28202 -10.28081
 Alpha  occ. eigenvalues --  -10.28059 -10.28031 -10.27842 -10.27422 -10.27365
 Alpha  occ. eigenvalues --  -10.27210 -10.27155 -10.27061 -10.27035 -10.26976
 Alpha  occ. eigenvalues --  -10.26827 -10.26177 -10.26120 -10.25868 -10.25533
 Alpha  occ. eigenvalues --  -10.25481 -10.25481 -10.25459 -10.25328 -10.24759
 Alpha  occ. eigenvalues --  -10.24715 -10.24675 -10.24631 -10.24624 -10.24602
 Alpha  occ. eigenvalues --  -10.24532 -10.24526 -10.24507 -10.24488 -10.24451
 Alpha  occ. eigenvalues --  -10.24324 -10.24248 -10.24168  -6.63629  -6.62756
 Alpha  occ. eigenvalues --   -4.77230  -4.77210  -4.76753  -4.76366  -4.76334
 Alpha  occ. eigenvalues --   -4.75883  -3.62745  -2.27271  -2.23071  -2.23036
 Alpha  occ. eigenvalues --   -1.36196  -1.35916  -1.35806  -1.35660  -1.35296
 Alpha  occ. eigenvalues --   -1.35113  -1.34822  -1.34684  -1.28089  -1.27763
 Alpha  occ. eigenvalues --   -1.27587  -1.27453  -1.27294  -1.27112  -1.27078
 Alpha  occ. eigenvalues --   -1.27062  -1.26956  -1.26917  -1.26658  -1.26590
 Alpha  occ. eigenvalues --   -1.26286  -1.26259  -1.26144  -1.26039  -0.96665
 Alpha  occ. eigenvalues --   -0.96458  -0.94661  -0.94068  -0.93845  -0.93587
 Alpha  occ. eigenvalues --   -0.92737  -0.91952  -0.89325  -0.89289  -0.86155
 Alpha  occ. eigenvalues --   -0.85584  -0.85201  -0.84887  -0.84457  -0.84203
 Alpha  occ. eigenvalues --   -0.82864  -0.82036  -0.81457  -0.81327  -0.78304
 Alpha  occ. eigenvalues --   -0.78088  -0.77064  -0.76920  -0.76788  -0.76514
 Alpha  occ. eigenvalues --   -0.76174  -0.75789  -0.75345  -0.75251  -0.74895
 Alpha  occ. eigenvalues --   -0.74632  -0.74419  -0.73832  -0.73126  -0.72706
 Alpha  occ. eigenvalues --   -0.71423  -0.71288  -0.70407  -0.69849  -0.68477
 Alpha  occ. eigenvalues --   -0.67986  -0.67832  -0.67517  -0.67287  -0.66833
 Alpha  occ. eigenvalues --   -0.65837  -0.65291  -0.64542  -0.64267  -0.63918
 Alpha  occ. eigenvalues --   -0.63540  -0.63348  -0.63194  -0.63069  -0.63053
 Alpha  occ. eigenvalues --   -0.62888  -0.62812  -0.62783  -0.62601  -0.62539
 Alpha  occ. eigenvalues --   -0.62425  -0.62236  -0.62098  -0.61917  -0.61859
 Alpha  occ. eigenvalues --   -0.61745  -0.61665  -0.61525  -0.61209  -0.60916
 Alpha  occ. eigenvalues --   -0.60770  -0.59467  -0.59073  -0.58425  -0.58229
 Alpha  occ. eigenvalues --   -0.57453  -0.56952  -0.56650  -0.55913  -0.55891
 Alpha  occ. eigenvalues --   -0.55683  -0.55417  -0.55171  -0.54946  -0.54197
 Alpha  occ. eigenvalues --   -0.53636  -0.53328  -0.53187  -0.53109  -0.52580
 Alpha  occ. eigenvalues --   -0.52465  -0.52013  -0.51363  -0.51023  -0.50974
 Alpha  occ. eigenvalues --   -0.50808  -0.50741  -0.50671  -0.50587  -0.50553
 Alpha  occ. eigenvalues --   -0.50365  -0.50327  -0.50253  -0.50090  -0.49884
 Alpha  occ. eigenvalues --   -0.49746  -0.49709  -0.49691  -0.49623  -0.49476
 Alpha  occ. eigenvalues --   -0.49389  -0.49364  -0.48957  -0.48057  -0.47749
 Alpha  occ. eigenvalues --   -0.47680  -0.47573  -0.47376  -0.47301  -0.47212
 Alpha  occ. eigenvalues --   -0.47197  -0.47026  -0.46909  -0.46870  -0.46829
 Alpha  occ. eigenvalues --   -0.46712  -0.46650  -0.46489  -0.46387  -0.46299
 Alpha  occ. eigenvalues --   -0.46217  -0.46175  -0.46129  -0.45914  -0.45907
 Alpha  occ. eigenvalues --   -0.45602  -0.45511  -0.45413  -0.45334  -0.45297
 Alpha  occ. eigenvalues --   -0.45059  -0.45001  -0.44955  -0.44889  -0.44768
 Alpha  occ. eigenvalues --   -0.44741  -0.44610  -0.44546  -0.44423  -0.44300
 Alpha  occ. eigenvalues --   -0.44261  -0.44109  -0.44089  -0.43995  -0.43988
 Alpha  occ. eigenvalues --   -0.43941  -0.43789  -0.43695  -0.43588  -0.43276
 Alpha  occ. eigenvalues --   -0.43165  -0.42741  -0.42472  -0.42255  -0.42058
 Alpha  occ. eigenvalues --   -0.41992  -0.41833  -0.41407  -0.40946  -0.40772
 Alpha  occ. eigenvalues --   -0.40535  -0.40304  -0.40159  -0.39964  -0.39669
 Alpha  occ. eigenvalues --   -0.39574  -0.39350  -0.39052  -0.39011  -0.38780
 Alpha  occ. eigenvalues --   -0.38580  -0.38467  -0.38116  -0.37789  -0.37666
 Alpha  occ. eigenvalues --   -0.37247  -0.37147  -0.36952  -0.36480  -0.36425
 Alpha  occ. eigenvalues --   -0.36067  -0.33035  -0.32394  -0.32308  -0.32110
 Alpha  occ. eigenvalues --   -0.31806  -0.31623  -0.31489  -0.31188  -0.30483
 Alpha  occ. eigenvalues --   -0.30060  -0.29780  -0.28990  -0.28183  -0.28124
 Alpha  occ. eigenvalues --   -0.27917  -0.27502  -0.26642  -0.26112  -0.24849
 Alpha  occ. eigenvalues --   -0.24769  -0.24607  -0.24281  -0.23077
 Alpha virt. eigenvalues --   -0.08115  -0.08052  -0.07625  -0.07317  -0.06714
 Alpha virt. eigenvalues --   -0.06452  -0.05603  -0.05270  -0.03117  -0.02961
 Alpha virt. eigenvalues --   -0.02776  -0.02612  -0.02304  -0.02024  -0.00891

 Mulliken charges:
               1
     1  Fe  -1.275875
     2  P    0.034066
     3  P   -0.049902
     4  C    0.285188
     5  C   -0.225266
     6  C    0.012816
     7  C   -0.081645
     8  C    0.334597
     9  C    0.438956
    10  C    0.320654
    11  C   -0.082247
    12  C   -0.043770
    13  C   -0.153346
    14  C    0.202374
    15  C   -0.341351
    16  C    0.133384
    17  C   -0.314557
    18  C    0.098974
    19  C   -0.267645
    20  C   -0.004192
    21  C   -0.278808
    22  C    0.132022
    23  C   -0.288531
    24  C    0.106940
    25  C   -0.248681
    26  C    0.163835
    27  C   -0.195216
    28  C    0.082254
    29  C   -0.293879
    30  C    0.166521
    31  C   -0.337317
    32  C    0.136297
    33  C   -0.238411
    34  C    0.127712
    35  C   -0.252721
    36  C    0.173274
    37  C   -0.393723
    38  H    0.095545
    39  H    0.145812
    40  H    0.160972
    41  H    0.159881
    42  H    0.203207
    43  H    0.252377
    44  H    0.173203
    45  H    0.206084
    46  H    0.130684
    47  H    0.160955
    48  H    0.159469
    49  H    0.177073
    50  H    0.171710
    51  H    0.174723
    52  C   -0.024746
    53  H    0.118287
    54  H    0.108554
    55  C    0.000654
    56  H    0.127497
    57  N   -0.139585
    58  C   -0.326227
    59  C   -0.350413
    60  H    0.138817
    61  H    0.146677
    62  H    0.127360
    63  H    0.145363
    64  H    0.113992
    65  H    0.141837
    66  C   -0.126591
    67  C   -0.120865
    68  C   -0.311799
    69  C    0.100439
    70  C   -0.261713
    71  C   -0.112609
    72  H    0.122199
    73  H    0.122070
    74  H    0.168203
    75  H    0.141514
    76  H    0.123285
    77  N   -0.069630
    78  H    0.000581
    79  C   -0.325018
    80  C   -0.350053
    81  H    0.108249
    82  H    0.153401
    83  H    0.129156
    84  H    0.098247
    85  H    0.136203
    86  H    0.159130
    87  C   -0.092436
    88  C   -0.148531
    89  C   -0.150144
    90  C   -0.078986
    91  C   -0.111066
    92  C   -0.183081
    93  H    0.122325
    94  H    0.132753
    95  H    0.090658
    96  C    0.430603
    97  F   -0.158633
    98  F   -0.161594
    99  F   -0.157231
   100  C    0.465618
   101  F   -0.162467
   102  F   -0.158998
   103  F   -0.165417
   104  C    0.435804
   105  F   -0.156758
   106  F   -0.155891
   107  F   -0.155469
   108  C    0.446046
   109  F   -0.158909
   110  F   -0.155635
   111  F   -0.156916
   112  C    0.437316
   113  F   -0.164878
   114  F   -0.164228
   115  F   -0.155532
   116  C    0.448655
   117  F   -0.165639
   118  F   -0.165577
   119  F   -0.160401
   120  C    0.447951
   121  F   -0.156905
   122  F   -0.157133
   123  F   -0.168178
   124  C    0.453782
   125  F   -0.156241
   126  F   -0.163905
   127  F   -0.163989
   128  H    0.119950
   129  H    0.124253
   130  H    0.148272
   131  H    0.139838
 Sum of Mulliken charges =  -0.00000

 Dipole moment (field-independent basis, Debye):
    X=             -1.1749    Y=             -3.4652    Z=              4.2050  Tot=              5.5740
 Quadrupole moment (field-independent basis, Debye-Ang):
   XX=           -562.6461   YY=           -538.2534   ZZ=           -523.9024
   XY=              6.0397   XZ=             16.2930   YZ=             -8.6982

 Summary of Natural Population Analysis:

                                       Natural Population
                Natural  -----------------------------------------------
    Atom  No    Charge         Core      Valence    Rydberg      Total
 -----------------------------------------------------------------------
     Fe    1   -0.29917     17.99024     8.26378    0.04516    26.29917
      P    2    0.88515      9.99765     4.08846    0.02874    14.11485
      P    3    0.87316      9.99772     4.09973    0.02939    14.12684
      C    4   -0.34046      1.99837     4.30251    0.03957     6.34046
      C    5   -0.19879      1.99865     4.17667    0.02347     6.19879
      C    6   -0.18794      1.99880     4.16492    0.02423     6.18794
      C    7   -0.20880      1.99868     4.18754    0.02257     6.20880
      C    8    0.00701      1.99857     3.95718    0.03725     5.99299
      C    9   -0.33693      1.99839     4.29890    0.03964     6.33693
      C   10    0.00859      1.99859     3.95582    0.03700     5.99141
      C   11   -0.20047      1.99868     4.17876    0.02303     6.20047
      C   12   -0.19158      1.99877     4.16942    0.02339     6.19158
      C   13   -0.20815      1.99864     4.18487    0.02465     6.20815
      C   14   -0.30596      1.99905     4.27630    0.03061     6.30596
      C   15   -0.17362      1.99904     4.15686    0.01772     6.17362
      C   16   -0.14068      1.99898     4.11767    0.02403     6.14068
      C   17   -0.16555      1.99907     4.14984    0.01665     6.16555
      C   18   -0.14557      1.99897     4.12178    0.02482     6.14557
      C   19   -0.16864      1.99902     4.15006    0.01956     6.16864
      C   20   -0.32746      1.99902     4.29770    0.03074     6.32746
      C   21   -0.16840      1.99902     4.14870    0.02067     6.16840
      C   22   -0.15646      1.99897     4.13264    0.02485     6.15646
      C   23   -0.14399      1.99907     4.12855    0.01637     6.14399
      C   24   -0.15346      1.99896     4.13104    0.02346     6.15346
      C   25   -0.16534      1.99904     4.14753    0.01877     6.16534
      C   26   -0.32565      1.99905     4.29526    0.03134     6.32565
      C   27   -0.17139      1.99902     4.15267    0.01969     6.17139
      C   28   -0.14744      1.99896     4.12317    0.02531     6.14744
      C   29   -0.13922      1.99906     4.12397    0.01619     6.13922
      C   30   -0.13579      1.99898     4.11218    0.02463     6.13579
      C   31   -0.16589      1.99904     4.14851    0.01834     6.16589
      C   32   -0.32444      1.99904     4.29423    0.03118     6.32444
      C   33   -0.15854      1.99901     4.13997    0.01956     6.15854
      C   34   -0.14581      1.99897     4.12148    0.02536     6.14581
      C   35   -0.14811      1.99906     4.13256    0.01648     6.14811
      C   36   -0.15148      1.99897     4.12788    0.02463     6.15148
      C   37   -0.15930      1.99904     4.14227    0.01799     6.15930
      H   38    0.24967      0.00000     0.74800    0.00233     0.75033
      H   39    0.25530      0.00000     0.74234    0.00237     0.74470
      H   40    0.24058      0.00000     0.75791    0.00152     0.75942
      H   41    0.25117      0.00000     0.74751    0.00133     0.74883
      H   42    0.24775      0.00000     0.75003    0.00222     0.75225
      H   43    0.27633      0.00000     0.72097    0.00270     0.72367
      H   44    0.25749      0.00000     0.74118    0.00133     0.74251
      H   45    0.25000      0.00000     0.74822    0.00178     0.75000
      H   46    0.25048      0.00000     0.74676    0.00275     0.74952
      H   47    0.25452      0.00000     0.74413    0.00135     0.74548
      H   48    0.24896      0.00000     0.74965    0.00139     0.75104
      H   49    0.24741      0.00000     0.75033    0.00226     0.75259
      H   50    0.25815      0.00000     0.74052    0.00133     0.74185
      H   51    0.24901      0.00000     0.74964    0.00135     0.75099
      C   52   -0.09647      1.99908     4.07190    0.02549     6.09647
      H   53    0.25937      0.00000     0.73836    0.00228     0.74063
      H   54    0.25752      0.00000     0.74086    0.00162     0.74248
      C   55   -0.10866      1.99909     4.08431    0.02526     6.10866
      H   56    0.22079      0.00000     0.77616    0.00304     0.77921
      N   57   -0.42577      1.99957     5.40012    0.02608     7.42577
      C   58   -0.43840      1.99941     4.42595    0.01304     6.43840
      C   59   -0.43469      1.99939     4.42167    0.01364     6.43469
      H   60    0.21043      0.00000     0.78813    0.00144     0.78957
      H   61    0.21140      0.00000     0.78751    0.00108     0.78860
      H   62    0.18313      0.00000     0.81357    0.00329     0.81687
      H   63    0.21738      0.00000     0.78128    0.00134     0.78262
      H   64    0.17361      0.00000     0.82388    0.00251     0.82639
      H   65    0.21311      0.00000     0.78533    0.00157     0.78689
      C   66   -0.21557      1.99922     4.19848    0.01787     6.21557
      C   67   -0.20612      1.99922     4.18902    0.01788     6.20612
      C   68   -0.23186      1.99909     4.21360    0.01918     6.23186
      C   69   -0.02586      1.99906     4.00542    0.02139     6.02586
      C   70   -0.22272      1.99912     4.20519    0.01841     6.22272
      C   71   -0.20669      1.99921     4.18998    0.01750     6.20669
      H   72    0.22122      0.00000     0.77765    0.00114     0.77878
      H   73    0.22027      0.00000     0.77856    0.00117     0.77973
      H   74    0.22182      0.00000     0.77609    0.00208     0.77818
      H   75    0.21624      0.00000     0.78225    0.00152     0.78376
      H   76    0.22190      0.00000     0.77691    0.00119     0.77810
      N   77   -0.41145      1.99956     5.38495    0.02694     7.41145
      H   78    0.20296      0.00000     0.79229    0.00475     0.79704
      C   79   -0.43252      1.99940     4.42298    0.01014     6.43252
      C   80   -0.42780      1.99940     4.41768    0.01071     6.42780
      H   81    0.17697      0.00000     0.82035    0.00268     0.82303
      H   82    0.21600      0.00000     0.78267    0.00132     0.78400
      H   83    0.20679      0.00000     0.79175    0.00146     0.79321
      H   84    0.16886      0.00000     0.82805    0.00309     0.83114
      H   85    0.21355      0.00000     0.78490    0.00155     0.78645
      H   86    0.20708      0.00000     0.79068    0.00224     0.79292
      C   87   -0.22631      1.99922     4.20921    0.01788     6.22631
      C   88   -0.21220      1.99922     4.19540    0.01758     6.21220
      C   89   -0.22244      1.99906     4.20484    0.01854     6.22244
      C   90   -0.00405      1.99906     3.98321    0.02177     6.00405
      C   91   -0.22841      1.99908     4.21059    0.01875     6.22841
      C   92   -0.21271      1.99921     4.19588    0.01761     6.21271
      H   93    0.22303      0.00000     0.77581    0.00116     0.77697
      H   94    0.22842      0.00000     0.76969    0.00189     0.77158
      H   95    0.21977      0.00000     0.77827    0.00196     0.78023
      C   96    0.95062      1.99912     3.00312    0.04715     5.04938
      F   97   -0.30772      1.99992     7.29926    0.00853     9.30772
      F   98   -0.31444      1.99993     7.30624    0.00828     9.31444
      F   99   -0.30914      1.99992     7.30095    0.00826     9.30914
      C  100    0.94979      1.99913     3.00344    0.04765     5.05021
      F  101   -0.30591      1.99992     7.29724    0.00875     9.30591
      F  102   -0.31070      1.99992     7.30248    0.00829     9.31070
      F  103   -0.31121      1.99993     7.30287    0.00842     9.31121
      C  104    0.94987      1.99912     3.00373    0.04729     5.05013
      F  105   -0.30631      1.99992     7.29781    0.00858     9.30631
      F  106   -0.31608      1.99993     7.30743    0.00872     9.31608
      F  107   -0.30651      1.99992     7.29827    0.00833     9.30651
      C  108    0.94980      1.99911     3.00369    0.04740     5.05020
      F  109   -0.31869      1.99993     7.31027    0.00849     9.31869
      F  110   -0.30581      1.99992     7.29732    0.00857     9.30581
      F  111   -0.30541      1.99992     7.29683    0.00867     9.30541
      C  112    0.94979      1.99913     3.00342    0.04766     5.05021
      F  113   -0.31292      1.99992     7.30449    0.00850     9.31292
      F  114   -0.31267      1.99993     7.30427    0.00848     9.31267
      F  115   -0.30838      1.99992     7.30003    0.00842     9.30838
      C  116    0.95093      1.99911     3.00285    0.04711     5.04907
      F  117   -0.31894      1.99993     7.31035    0.00866     9.31894
      F  118   -0.31118      1.99992     7.30296    0.00830     9.31118
      F  119   -0.30900      1.99992     7.30064    0.00844     9.30900
      C  120    0.95113      1.99912     3.00248    0.04728     5.04887
      F  121   -0.30608      1.99992     7.29730    0.00886     9.30608
      F  122   -0.30688      1.99992     7.29843    0.00854     9.30688
      F  123   -0.31986      1.99993     7.31141    0.00852     9.31986
      C  124    0.95183      1.99913     3.00030    0.04874     5.04817
      F  125   -0.30550      1.99992     7.29730    0.00828     9.30550
      F  126   -0.30950      1.99992     7.30109    0.00848     9.30950
      F  127   -0.31557      1.99993     7.30690    0.00875     9.31557
      H  128    0.22122      0.00000     0.77759    0.00118     0.77878
      H  129    0.22771      0.00000     0.77105    0.00124     0.77229
      H  130    0.27136      0.00000     0.72636    0.00228     0.72864
      H  131    0.25920      0.00000     0.73889    0.00192     0.74080
 =======================================================================
   * Total *   -0.00000    209.92394   476.09902    1.97704   688.00000

 1\1\GINC-NC211\SP\RPBE1PBE\Gen\C60H42F24Fe1N2P2\MACKK4\02-Dec-2021\0\\
 # PBE1PBE gen pseudo=read int=(grid=ultrafine) empiricaldispersion=GD3
 BJ pop=nbo guess=read geom=check\\M003_1_3 title\\0,1\Fe,0,-0.00784836
 2,-1.4974359897,1.6768757416\P,0,1.7984512787,-0.0735216738,-0.7894203
 292\P,0,-1.7838977129,0.2983138221,-0.5452403664\C,0,1.5083812263,-1.4
 256009952,0.3877113009\C,0,0.5655989362,-2.4559411688,-0.0129331377\C,
 0,0.4714419934,-3.4177814407,1.0372982665\C,0,1.3304094609,-2.99750795
 98,2.0962437543\C,0,2.0007641796,-1.7755981143,1.7203500694\C,0,-1.519

 Normal termination of Gaussian 09 at Thu Dec  2 11:04:16 2021.
