 Gaussian 09, Revision E.01,

 ----------------------------------------------------------------------
 # PBE1PBE gen pseudo=read int=(grid=ultrafine) empiricaldispersion=GD3
 BJ nmr=giao
 ----------------------------------------------------------------------

 --------------
 M003_1_2 title
 --------------
 Symbolic Z-matrix:
 Charge =  0 Multiplicity = 1

 SCF Done:  E(RPBE1PBE) =  -5620.86618166     A.U. after   25 cycles

      1  Fe   Isotropic = -6109.2087   Anisotropy =  7773.7531

      2  P    Isotropic =   297.1305   Anisotropy =    53.0451

      3  P    Isotropic =   309.8359   Anisotropy =    38.3344

      4  C    Isotropic =   111.3213   Anisotropy =    79.2890

      5  C    Isotropic =    97.4770   Anisotropy =    77.9448

      6  C    Isotropic =   102.3846   Anisotropy =   105.3706

      7  C    Isotropic =   104.9251   Anisotropy =    86.7684

      8  C    Isotropic =    92.3459   Anisotropy =    82.0826

      9  C    Isotropic =   105.9677   Anisotropy =    83.3915

     10  C    Isotropic =    81.0983   Anisotropy =    94.3877

     11  C    Isotropic =   107.9432   Anisotropy =    93.7713

     12  C    Isotropic =   106.2547   Anisotropy =    98.8150

     13  C    Isotropic =   108.0964   Anisotropy =    81.5374

     14  C    Isotropic =    29.4622   Anisotropy =   204.0800

     15  C    Isotropic =    50.7953   Anisotropy =   189.7773

     16  C    Isotropic =    47.0101   Anisotropy =   160.9264

     17  C    Isotropic =    59.1443   Anisotropy =   182.5394

     18  C    Isotropic =    47.5043   Anisotropy =   160.7052

     19  C    Isotropic =    49.0795   Anisotropy =   194.9284

     20  C    Isotropic =    38.2639   Anisotropy =   202.2339

     21  C    Isotropic =    37.4362   Anisotropy =   211.8407

     22  C    Isotropic =    45.2770   Anisotropy =   162.9018

     23  C    Isotropic =    54.3671   Anisotropy =   191.5828

     24  C    Isotropic =    46.7675   Anisotropy =   160.8102

     25  C    Isotropic =    37.8346   Anisotropy =   190.5631

     26  C    Isotropic =    36.1211   Anisotropy =   206.4869

     27  C    Isotropic =    37.5266   Anisotropy =   203.3270

     28  C    Isotropic =    45.0205   Anisotropy =   165.1879

     29  C    Isotropic =    52.7340   Anisotropy =   194.5198

     30  C    Isotropic =    43.9359   Anisotropy =   167.9239

     31  C    Isotropic =    46.0887   Anisotropy =   189.6822

     32  C    Isotropic =    41.1618   Anisotropy =   204.2165

     33  C    Isotropic =    38.5086   Anisotropy =   207.9075

     34  C    Isotropic =    45.2329   Anisotropy =   164.4750

     35  C    Isotropic =    54.6361   Anisotropy =   191.1706

     36  C    Isotropic =    46.3271   Anisotropy =   163.0497

     37  C    Isotropic =    42.4010   Anisotropy =   189.5331

     38  H    Isotropic =    26.9907   Anisotropy =     6.4898

     39  H    Isotropic =    28.0544   Anisotropy =     9.5937

     40  H    Isotropic =    23.9711   Anisotropy =    15.6845

     41  H    Isotropic =    23.5610   Anisotropy =     9.6085

     42  H    Isotropic =    23.5395   Anisotropy =    17.7543

     43  H    Isotropic =    21.9225   Anisotropy =     9.8650

     44  H    Isotropic =    23.0840   Anisotropy =    11.1180

     45  H    Isotropic =    22.2788   Anisotropy =     9.8057

     46  H    Isotropic =    22.8779   Anisotropy =    15.5068

     47  H    Isotropic =    23.0409   Anisotropy =     9.0912

     48  H    Isotropic =    22.7272   Anisotropy =    12.2775

     49  H    Isotropic =    23.2567   Anisotropy =    15.3728

     50  H    Isotropic =    23.0172   Anisotropy =     9.7515

     51  H    Isotropic =    22.2207   Anisotropy =    11.9590

     52  C    Isotropic =   115.8242   Anisotropy =    29.7891

     53  H    Isotropic =    27.7317   Anisotropy =    10.0839

     54  H    Isotropic =    27.4590   Anisotropy =     3.9662

     55  C    Isotropic =   116.7920   Anisotropy =    41.1716

     56  H    Isotropic =    27.1054   Anisotropy =     5.0897

     57  N    Isotropic =   203.4428   Anisotropy =    58.8499

     58  C    Isotropic =   140.9328   Anisotropy =    53.8439

     59  C    Isotropic =   144.6265   Anisotropy =    48.1444

     60  H    Isotropic =    29.5728   Anisotropy =     9.2309

     61  H    Isotropic =    29.2338   Anisotropy =    11.2173

     62  H    Isotropic =    30.4220   Anisotropy =     7.5149

     63  H    Isotropic =    30.2450   Anisotropy =    10.1042

     64  H    Isotropic =    29.7780   Anisotropy =     9.5698

     65  H    Isotropic =    29.6419   Anisotropy =     6.9543

     66  C    Isotropic =    51.8022   Anisotropy =   188.0212

     67  C    Isotropic =    52.1831   Anisotropy =   186.2259

     68  C    Isotropic =    50.6513   Anisotropy =   183.4868

     69  C    Isotropic =    39.3384   Anisotropy =   193.5679

     70  C    Isotropic =    47.8631   Anisotropy =   166.3406

     71  C    Isotropic =    50.6972   Anisotropy =   186.5072

     72  H    Isotropic =    23.8280   Anisotropy =     3.5670

     73  H    Isotropic =    23.7895   Anisotropy =     6.3668

     74  H    Isotropic =    23.8793   Anisotropy =    10.9924

     75  H    Isotropic =    24.3653   Anisotropy =     9.1486

     76  H    Isotropic =    23.8525   Anisotropy =     7.5053

     77  N    Isotropic =   190.4818   Anisotropy =    57.6689

     78  H    Isotropic =    29.0393   Anisotropy =    14.0659

     79  C    Isotropic =   139.1744   Anisotropy =    61.9632

     80  C    Isotropic =   139.2600   Anisotropy =    54.9986

     81  H    Isotropic =    30.0915   Anisotropy =     8.2269

     82  H    Isotropic =    29.5612   Anisotropy =     6.8213

     83  H    Isotropic =    29.5167   Anisotropy =    12.2288

     84  H    Isotropic =    29.5631   Anisotropy =     5.8731

     85  H    Isotropic =    29.2554   Anisotropy =    10.3606

     86  H    Isotropic =    29.1689   Anisotropy =     7.7515

     87  C    Isotropic =    52.0771   Anisotropy =   186.5356

     88  C    Isotropic =    50.4678   Anisotropy =   189.1983

     89  C    Isotropic =    52.0096   Anisotropy =   191.7864

     90  C    Isotropic =    29.4929   Anisotropy =   207.0086

     91  C    Isotropic =    49.3714   Anisotropy =   171.1033

     92  C    Isotropic =    51.2374   Anisotropy =   188.9207

     93  H    Isotropic =    23.8126   Anisotropy =     3.7229

     94  H    Isotropic =    23.6025   Anisotropy =     9.4950

     95  H    Isotropic =    24.5804   Anisotropy =     6.0869

     96  C    Isotropic =    48.3951   Anisotropy =    15.9909

     97  F    Isotropic =   221.5965   Anisotropy =   147.4860

     98  F    Isotropic =   252.4629   Anisotropy =   131.9054

     99  F    Isotropic =   237.9869   Anisotropy =   146.4131

    100  C    Isotropic =    48.9114   Anisotropy =    12.2349

    101  F    Isotropic =   224.2908   Anisotropy =   151.5546

    102  F    Isotropic =   231.1752   Anisotropy =   149.7413

    103  F    Isotropic =   257.2419   Anisotropy =   115.1976

    104  C    Isotropic =    48.7884   Anisotropy =    15.4295

    105  F    Isotropic =   235.2801   Anisotropy =   143.7601

    106  F    Isotropic =   255.5286   Anisotropy =   127.5078

    107  F    Isotropic =   215.3082   Anisotropy =   142.5338

    108  C    Isotropic =    48.3770   Anisotropy =    12.9078

    109  F    Isotropic =   216.4793   Anisotropy =   151.9793

    110  F    Isotropic =   242.9418   Anisotropy =   139.9046

    111  F    Isotropic =   250.0727   Anisotropy =   128.8110

    112  C    Isotropic =    48.9120   Anisotropy =    13.6121

    113  F    Isotropic =   219.1861   Anisotropy =   150.8626

    114  F    Isotropic =   248.2564   Anisotropy =   139.8197

    115  F    Isotropic =   249.0728   Anisotropy =   133.5641

    116  C    Isotropic =    48.3778   Anisotropy =    14.9330

    117  F    Isotropic =   249.2364   Anisotropy =   137.2621

    118  F    Isotropic =   217.2092   Anisotropy =   147.7136

    119  F    Isotropic =   247.1114   Anisotropy =   137.8344

    120  C    Isotropic =    48.4672   Anisotropy =    14.8413

    121  F    Isotropic =   241.1812   Anisotropy =   130.9498

    122  F    Isotropic =   247.8641   Anisotropy =   135.0296

    123  F    Isotropic =   215.2749   Anisotropy =   147.5673

    124  C    Isotropic =    49.6238   Anisotropy =    16.9950

    125  F    Isotropic =   232.1399   Anisotropy =   132.0434

    126  F    Isotropic =   222.5810   Anisotropy =   149.9597

    127  F    Isotropic =   256.3016   Anisotropy =   126.4845

    128  H    Isotropic =    23.7547   Anisotropy =     5.0043

    129  H    Isotropic =    23.7009   Anisotropy =     7.8187

    130  H    Isotropic =    29.9139   Anisotropy =    18.1586

    131  H    Isotropic =    27.6936   Anisotropy =     8.0820

 1\1\GINC-NC209\SP\RPBE1PBE\Gen\C60H42F24Fe1N2P2\MACKK4\02-Dec-2021\0\\
 # PBE1PBE gen pseudo=read int=(grid=ultrafine) empiricaldispersion=GD3
 BJ nmr=giao\\M003_1_2 title\\0,1\Fe,0,-0.0062403935,-1.4820415156,1.68
 2749451\P,0,1.7931195319,-0.0596371444,-0.791460811\P,0,-1.7898273307,
 0.29775939,-0.5460468326\C,0,1.5048323527,-1.407853469,0.3905751188\C,
 0,0.5637822107,-2.4419150158,-0.0055125036\C,0,0.4763529415,-3.4026550
 887,1.0465034313\C,0,1.3386888691,-2.9786266443,2.1011165119\C,0,2.004
 5156965,-1.7559193306,1.7204303548\C,0,-1.5210086732,-0.2686540076,1.1

 Normal termination of Gaussian 09 at Thu Dec  2 09:16:27 2021.
 Gaussian 09:  ES64L-G09RevE.01 30-Nov-2015

 ----------------------------------------------------------------------
 # PBE1PBE gen pseudo=read int=(grid=ultrafine) empiricaldispersion=GD3
 BJ pop=nbo guess=read geom=check
 ----------------------------------------------------------------------

 --------------
 M003_1_2 title
 --------------
 Structure from the checkpoint file:  "M003_1_2_SPE_NoPd.chk"
 Charge =  0 Multiplicity = 1

                         Standard orientation:
 ---------------------------------------------------------------------
 Center     Atomic      Atomic             Coordinates (Angstroms)
 Number     Number       Type             X           Y           Z
 ---------------------------------------------------------------------
      1         26           0       -0.028850   -1.353661    1.420812
      2         15           0        1.772340   -0.050393   -1.116875
      3         15           0       -1.810852    0.317681   -0.891652
      4          6           0        1.483265   -1.340838    0.127791
      5          6           0        0.542672   -2.392747   -0.219363
      6          6           0        0.454511   -3.302313    0.877140
      7          6           0        1.315933   -2.828398    1.911060
      8          6           0        1.981911   -1.625095    1.473116
      9          6           0       -1.543364   -0.165959    0.857279
     10          6           0       -2.051670   -1.222924    1.734072
     11          6           0       -1.341846   -1.101070    2.982801
     12          6           0       -0.439575    0.002865    2.914827
     13          6           0       -0.553538    0.582957    1.613989
     14          6           0        3.325121   -0.626885   -1.913336
     15          6           0        4.226933    0.286066   -2.487966
     16          6           0        5.412677   -0.178688   -3.069140
     17          6           0        5.703105   -1.549398   -3.103369
     18          6           0        4.789750   -2.455630   -2.552849
     19          6           0        3.602600   -2.000369   -1.962299
     20          6           0        2.252242    1.566573   -0.373504
     21          6           0        3.486533    1.778489    0.269690
     22          6           0        3.800257    3.057124    0.755251
     23          6           0        2.901314    4.124996    0.611228
     24          6           0        1.685245    3.912272   -0.044049
     25          6           0        1.368825    2.643759   -0.549602
     26          6           0       -2.494586    2.017142   -0.637810
     27          6           0       -3.162521    2.305614    0.563522
     28          6           0       -3.703422    3.579636    0.785418
     29          6           0       -3.563327    4.582411   -0.178332
     30          6           0       -2.887243    4.295068   -1.373366
     31          6           0       -2.358348    3.021643   -1.614578
     32          6           0       -3.237481   -0.672322   -1.497167
     33          6           0       -4.560240   -0.318602   -1.203426
     34          6           0       -5.617530   -1.116484   -1.669259
     35          6           0       -5.363763   -2.257621   -2.436534
     36          6           0       -4.037089   -2.592101   -2.751011
     37          6           0       -2.977671   -1.804044   -2.289336
     38          1           0       -0.022416   -2.435738   -1.151894
     39          1           0        0.019994    1.430448    1.239552
     40          1           0        4.005577    1.355068   -2.497045
     41          1           0        6.624711   -1.906606   -3.568976
     42          1           0        2.900347   -2.725111   -1.543166
     43          1           0        4.186558    0.940562    0.383870
     44          1           0        3.159087    5.118204    0.985696
     45          1           0        0.439680    2.491576   -1.110509
     46          1           0       -3.264987    1.540318    1.335936
     47          1           0       -3.969549    5.581326    0.000929
     48          1           0       -1.854806    2.801608   -2.560714
     49          1           0       -4.781241    0.582097   -0.623911
     50          1           0       -6.190588   -2.867151   -2.808095
     51          1           0       -1.951111   -2.039896   -2.582788
     52          6           0        3.046965   -0.859807    2.229194
     53          1           0        0.269934    0.296354    3.688561
     54          1           0       -1.469549   -1.769233    3.832614
     55          6           0       -3.222980   -2.181297    1.555249
     56          1           0        2.825010    0.218063    2.107160
     57          7           0        4.372606   -1.043711    1.569562
     58          6           0        5.451663   -0.399657    2.324443
     59          6           0        4.752934   -2.415226    1.232373
     60          1           0        6.337262   -0.305885    1.673004
     61          1           0        5.146036    0.607510    2.643947
     62          1           0        5.742137   -0.969395    3.234095
     63          1           0        5.595129   -2.385073    0.521550
     64          1           0        5.078268   -3.013634    2.112847
     65          1           0        3.919988   -2.938546    0.740763
     66          6           0        3.081127   -1.445935    6.547774
     67          6           0        3.347054   -2.532545    5.702214
     68          6           0        3.326770   -2.369523    4.309950
     69          6           0        3.035716   -1.114864    3.735678
     70          6           0        2.803662   -0.027351    4.599392
     71          6           0        2.814569   -0.187264    5.991439
     72          1           0        3.094357   -1.577452    7.634318
     73          1           0        3.574752   -3.515386    6.127920
     74          1           0        3.543359   -3.228657    3.668925
     75          1           0        2.630048    0.966613    4.167748
     76          1           0        2.624698    0.673567    6.640809
     77          7           0       -4.203839   -1.948671    2.647389
     78          1           0       -3.686326   -1.978178    0.568046
     79          6           0       -5.386560   -2.799414    2.456286
     80          6           0       -4.637519   -0.549983    2.716028
     81          1           0       -5.934472   -2.568285    1.514685
     82          1           0       -5.093920   -3.860002    2.442472
     83          1           0       -6.077006   -2.639804    3.301367
     84          1           0       -5.148729   -0.201233    1.788618
     85          1           0       -5.353040   -0.442083    3.548221
     86          1           0       -3.781856    0.110315    2.925960
     87          6           0       -1.883867   -6.317701    1.459784
     88          6           0       -1.918015   -5.620454    2.679342
     89          6           0       -2.368418   -4.294501    2.724817
     90          6           0       -2.779303   -3.641316    1.548105
     91          6           0       -2.773616   -4.356361    0.340513
     92          6           0       -2.325485   -5.684058    0.289435
     93          1           0       -1.530285   -7.353269    1.427666
     94          1           0       -2.433094   -3.765837    3.680456
     95          1           0       -3.128137   -3.872287   -0.571959
     96          6           0       -4.372487    3.855823    2.109583
     97          9           0       -3.452887    4.089475    3.086720
     98          9           0       -5.191546    4.935612    2.051918
     99          9           0       -5.117580    2.786814    2.516333
    100          6           0       -2.744951    5.396379   -2.399971
    101          9           0       -3.953553    5.710175   -2.943291
    102          9           0       -2.264538    6.532996   -1.819684
    103          9           0       -1.910619    5.056015   -3.408094
    104          6           0       -7.026372   -0.732160   -1.288392
    105          9           0       -7.259038    0.585591   -1.520434
    106          9           0       -7.956670   -1.450975   -1.963071
    107          9           0       -7.241309   -0.937983    0.048500
    108          6           0       -3.750023   -3.841115   -3.550175
    109          9           0       -3.708569   -4.942814   -2.732529
    110          9           0       -4.714378   -4.076802   -4.474355
    111          9           0       -2.556365   -3.773986   -4.186160
    112          6           0        6.415385    0.815178   -3.605634
    113          9           0        7.280422    1.206813   -2.625188
    114          9           0        7.161701    0.283278   -4.609130
    115          9           0        5.811706    1.934950   -4.077691
    116          6           0        5.118401   -3.926631   -2.505022
    117          9           0        5.935387   -4.299116   -3.522299
    118          9           0        5.760555   -4.246121   -1.338468
    119          9           0        3.998965   -4.696016   -2.559910
    120          6           0        5.098707    3.283162    1.492641
    121          9           0        6.100701    2.512676    0.999185
    122          9           0        5.496934    4.578273    1.434782
    123          9           0        4.961103    2.967102    2.819640
    124          6           0        0.672896    5.021787   -0.204808
    125          9           0        0.228097    5.092810   -1.486313
    126          9           0       -0.414863    4.790961    0.588114
    127          9           0        1.177841    6.232688    0.134854
    128          1           0       -1.599682   -6.116738    3.602333
    129          1           0       -2.332105   -6.216166   -0.667184
    130          1           0       -0.207250   -4.163945    0.939375
    131          1           0        1.400528   -3.259023    2.907321
 ---------------------------------------------------------------------

 SCF Done:  E(RPBE1PBE) =  -5620.86618167     A.U. after    4 cycles

 The electronic state is 1-A.
 Alpha  occ. eigenvalues --  -77.24075 -77.23181 -24.82863 -24.82628 -24.82617
 Alpha  occ. eigenvalues --  -24.82362 -24.82258 -24.82184 -24.82158 -24.82127
 Alpha  occ. eigenvalues --  -24.82040 -24.81967 -24.81938 -24.81883 -24.81879
 Alpha  occ. eigenvalues --  -24.81767 -24.81691 -24.81434 -24.81413 -24.81372
 Alpha  occ. eigenvalues --  -24.81293 -24.81226 -24.81164 -24.81119 -24.80884
 Alpha  occ. eigenvalues --  -24.80676 -14.39855 -14.39653 -10.50334 -10.50073
 Alpha  occ. eigenvalues --  -10.49853 -10.49720 -10.49432 -10.49170 -10.48895
 Alpha  occ. eigenvalues --  -10.48717 -10.29918 -10.29793 -10.29289 -10.29289
 Alpha  occ. eigenvalues --  -10.29248 -10.29046 -10.28991 -10.28938 -10.28892
 Alpha  occ. eigenvalues --  -10.28809 -10.28789 -10.28486 -10.28459 -10.28430
 Alpha  occ. eigenvalues --  -10.28358 -10.28275 -10.28232 -10.28198 -10.28066
 Alpha  occ. eigenvalues --  -10.28050 -10.28013 -10.27836 -10.27426 -10.27421
 Alpha  occ. eigenvalues --  -10.27203 -10.27143 -10.27054 -10.27036 -10.26965
 Alpha  occ. eigenvalues --  -10.26852 -10.26168 -10.26131 -10.25885 -10.25519
 Alpha  occ. eigenvalues --  -10.25468 -10.25459 -10.25456 -10.25315 -10.24753
 Alpha  occ. eigenvalues --  -10.24697 -10.24663 -10.24616 -10.24601 -10.24594
 Alpha  occ. eigenvalues --  -10.24511 -10.24501 -10.24493 -10.24467 -10.24437
 Alpha  occ. eigenvalues --  -10.24318 -10.24234 -10.24157  -6.63622  -6.62758
 Alpha  occ. eigenvalues --   -4.77224  -4.77204  -4.76747  -4.76369  -4.76336
 Alpha  occ. eigenvalues --   -4.75886  -3.62735  -2.27262  -2.23062  -2.23025
 Alpha  occ. eigenvalues --   -1.36189  -1.35913  -1.35792  -1.35617  -1.35290
 Alpha  occ. eigenvalues --   -1.35110  -1.34821  -1.34699  -1.28081  -1.27760
 Alpha  occ. eigenvalues --   -1.27576  -1.27404  -1.27289  -1.27096  -1.27076
 Alpha  occ. eigenvalues --   -1.27057  -1.26955  -1.26880  -1.26657  -1.26585
 Alpha  occ. eigenvalues --   -1.26511  -1.26252  -1.26031  -1.25916  -0.96658
 Alpha  occ. eigenvalues --   -0.96451  -0.94658  -0.94050  -0.93840  -0.93581
 Alpha  occ. eigenvalues --   -0.92752  -0.91947  -0.89313  -0.89275  -0.86151
 Alpha  occ. eigenvalues --   -0.85558  -0.85195  -0.84883  -0.84470  -0.84194
 Alpha  occ. eigenvalues --   -0.82858  -0.82038  -0.81457  -0.81319  -0.78288
 Alpha  occ. eigenvalues --   -0.78074  -0.77057  -0.76917  -0.76781  -0.76495
 Alpha  occ. eigenvalues --   -0.76171  -0.75766  -0.75341  -0.75246  -0.74873
 Alpha  occ. eigenvalues --   -0.74665  -0.74413  -0.73813  -0.73105  -0.72698
 Alpha  occ. eigenvalues --   -0.71420  -0.71284  -0.70405  -0.69836  -0.68473
 Alpha  occ. eigenvalues --   -0.67962  -0.67826  -0.67511  -0.67284  -0.66837
 Alpha  occ. eigenvalues --   -0.65833  -0.65298  -0.64532  -0.64245  -0.63913
 Alpha  occ. eigenvalues --   -0.63533  -0.63337  -0.63189  -0.63063  -0.63036
 Alpha  occ. eigenvalues --   -0.62859  -0.62785  -0.62780  -0.62565  -0.62534
 Alpha  occ. eigenvalues --   -0.62420  -0.62231  -0.62085  -0.61946  -0.61879
 Alpha  occ. eigenvalues --   -0.61743  -0.61580  -0.61519  -0.61200  -0.60922
 Alpha  occ. eigenvalues --   -0.60768  -0.59465  -0.59074  -0.58417  -0.58231
 Alpha  occ. eigenvalues --   -0.57450  -0.56931  -0.56644  -0.55901  -0.55879
 Alpha  occ. eigenvalues --   -0.55673  -0.55405  -0.55149  -0.54936  -0.54183
 Alpha  occ. eigenvalues --   -0.53628  -0.53323  -0.53187  -0.53108  -0.52568
 Alpha  occ. eigenvalues --   -0.52468  -0.52008  -0.51361  -0.51011  -0.50967
 Alpha  occ. eigenvalues --   -0.50801  -0.50737  -0.50655  -0.50566  -0.50546
 Alpha  occ. eigenvalues --   -0.50342  -0.50323  -0.50220  -0.50085  -0.49880
 Alpha  occ. eigenvalues --   -0.49739  -0.49701  -0.49626  -0.49613  -0.49464
 Alpha  occ. eigenvalues --   -0.49395  -0.49383  -0.49000  -0.48049  -0.47742
 Alpha  occ. eigenvalues --   -0.47665  -0.47569  -0.47369  -0.47290  -0.47213
 Alpha  occ. eigenvalues --   -0.47188  -0.47024  -0.46892  -0.46862  -0.46822
 Alpha  occ. eigenvalues --   -0.46706  -0.46644  -0.46481  -0.46375  -0.46303
 Alpha  occ. eigenvalues --   -0.46194  -0.46141  -0.46121  -0.45908  -0.45851
 Alpha  occ. eigenvalues --   -0.45638  -0.45507  -0.45387  -0.45327  -0.45288
 Alpha  occ. eigenvalues --   -0.45054  -0.44983  -0.44952  -0.44865  -0.44749
 Alpha  occ. eigenvalues --   -0.44720  -0.44597  -0.44534  -0.44416  -0.44278
 Alpha  occ. eigenvalues --   -0.44238  -0.44095  -0.44085  -0.43994  -0.43955
 Alpha  occ. eigenvalues --   -0.43927  -0.43765  -0.43683  -0.43596  -0.43278
 Alpha  occ. eigenvalues --   -0.43172  -0.42730  -0.42485  -0.42251  -0.42079
 Alpha  occ. eigenvalues --   -0.41982  -0.41834  -0.41413  -0.40952  -0.40770
 Alpha  occ. eigenvalues --   -0.40531  -0.40293  -0.40139  -0.39934  -0.39670
 Alpha  occ. eigenvalues --   -0.39557  -0.39344  -0.39045  -0.39012  -0.38787
 Alpha  occ. eigenvalues --   -0.38580  -0.38457  -0.38084  -0.37793  -0.37665
 Alpha  occ. eigenvalues --   -0.37266  -0.37135  -0.36935  -0.36467  -0.36413
 Alpha  occ. eigenvalues --   -0.36056  -0.33058  -0.32395  -0.32332  -0.32108
 Alpha  occ. eigenvalues --   -0.31792  -0.31622  -0.31484  -0.31186  -0.30475
 Alpha  occ. eigenvalues --   -0.30036  -0.29754  -0.28971  -0.28168  -0.28110
 Alpha  occ. eigenvalues --   -0.27907  -0.27489  -0.26634  -0.26113  -0.24837
 Alpha  occ. eigenvalues --   -0.24760  -0.24599  -0.24249  -0.23050
 Alpha virt. eigenvalues --   -0.08113  -0.08048  -0.07648  -0.07291  -0.06709
 Alpha virt. eigenvalues --   -0.06443  -0.05600  -0.05286  -0.03110  -0.02949
 Alpha virt. eigenvalues --   -0.02759  -0.02593  -0.02290  -0.01997  -0.00880

 Mulliken charges:
               1
     1  Fe  -1.278581
     2  P    0.031934
     3  P   -0.051139
     4  C    0.286407
     5  C   -0.239484
     6  C    0.014645
     7  C   -0.072246
     8  C    0.322515
     9  C    0.435204
    10  C    0.323282
    11  C   -0.083558
    12  C   -0.034340
    13  C   -0.153717
    14  C    0.206186
    15  C   -0.329730
    16  C    0.132453
    17  C   -0.308438
    18  C    0.099917
    19  C   -0.288743
    20  C    0.006186
    21  C   -0.297514
    22  C    0.134468
    23  C   -0.287977
    24  C    0.109805
    25  C   -0.249550
    26  C    0.167419
    27  C   -0.195535
    28  C    0.082507
    29  C   -0.294199
    30  C    0.167180
    31  C   -0.340508
    32  C    0.136496
    33  C   -0.237795
    34  C    0.127556
    35  C   -0.252659
    36  C    0.172728
    37  C   -0.392489
    38  H    0.098442
    39  H    0.146085
    40  H    0.162369
    41  H    0.164637
    42  H    0.200971
    43  H    0.261742
    44  H    0.173214
    45  H    0.203552
    46  H    0.131030
    47  H    0.160879
    48  H    0.159742
    49  H    0.177050
    50  H    0.171791
    51  H    0.174408
    52  C   -0.035343
    53  H    0.109594
    54  H    0.109008
    55  C    0.000814
    56  H    0.130884
    57  N   -0.144218
    58  C   -0.326445
    59  C   -0.340713
    60  H    0.139902
    61  H    0.148340
    62  H    0.127630
    63  H    0.139119
    64  H    0.112659
    65  H    0.142925
    66  C   -0.124397
    67  C   -0.120669
    68  C   -0.311801
    69  C    0.113036
    70  C   -0.261485
    71  C   -0.116622
    72  H    0.122178
    73  H    0.122147
    74  H    0.167400
    75  H    0.141831
    76  H    0.123097
    77  N   -0.069775
    78  H    0.000842
    79  C   -0.325004
    80  C   -0.349893
    81  H    0.108198
    82  H    0.153408
    83  H    0.129135
    84  H    0.098139
    85  H    0.136174
    86  H    0.159057
    87  C   -0.093183
    88  C   -0.147674
    89  C   -0.151102
    90  C   -0.076025
    91  C   -0.113621
    92  C   -0.182197
    93  H    0.122306
    94  H    0.132665
    95  H    0.090618
    96  C    0.430596
    97  F   -0.157236
    98  F   -0.158643
    99  F   -0.161619
   100  C    0.465626
   101  F   -0.159075
   102  F   -0.165370
   103  F   -0.162447
   104  C    0.435801
   105  F   -0.155460
   106  F   -0.156767
   107  F   -0.155886
   108  C    0.445779
   109  F   -0.158785
   110  F   -0.155668
   111  F   -0.156894
   112  C    0.437169
   113  F   -0.159687
   114  F   -0.162524
   115  F   -0.162408
   116  C    0.440072
   117  F   -0.159880
   118  F   -0.162256
   119  F   -0.164046
   120  C    0.447587
   121  F   -0.156018
   122  F   -0.157308
   123  F   -0.168440
   124  C    0.454125
   125  F   -0.164102
   126  F   -0.164079
   127  F   -0.156359
   128  H    0.119981
   129  H    0.124323
   130  H    0.149526
   131  H    0.144838
 Sum of Mulliken charges =  -0.00000

 Dipole moment (field-independent basis, Debye):
    X=             -1.1082    Y=             -3.3872    Z=              4.0766  Tot=              5.4148
 Quadrupole moment (field-independent basis, Debye-Ang):
   XX=           -562.5790   YY=           -539.1831   ZZ=           -522.4992
   XY=              5.4674   XZ=             15.4784   YZ=             -9.1011

 Summary of Natural Population Analysis:

                                       Natural Population
                Natural  -----------------------------------------------
    Atom  No    Charge         Core      Valence    Rydberg      Total
 -----------------------------------------------------------------------
     Fe    1   -0.29938     17.99023     8.26406    0.04510    26.29938
      P    2    0.88464      9.99765     4.08897    0.02874    14.11536
      P    3    0.87325      9.99772     4.09964    0.02939    14.12675
      C    4   -0.33801      1.99836     4.30005    0.03960     6.33801
      C    5   -0.20109      1.99865     4.17891    0.02353     6.20109
      C    6   -0.18809      1.99880     4.16508    0.02421     6.18809
      C    7   -0.20790      1.99868     4.18666    0.02256     6.20790
      C    8    0.00589      1.99857     3.95827    0.03728     5.99411
      C    9   -0.33627      1.99839     4.29826    0.03962     6.33627
      C   10    0.00847      1.99859     3.95593    0.03700     5.99153
      C   11   -0.20066      1.99868     4.17894    0.02303     6.20066
      C   12   -0.19196      1.99877     4.16983    0.02336     6.19196
      C   13   -0.20807      1.99864     4.18479    0.02464     6.20807
      C   14   -0.30345      1.99905     4.27375    0.03066     6.30345
      C   15   -0.17476      1.99904     4.15783    0.01789     6.17476
      C   16   -0.14029      1.99898     4.11725    0.02406     6.14029
      C   17   -0.16844      1.99907     4.15257    0.01681     6.16844
      C   18   -0.14445      1.99897     4.12054    0.02494     6.14445
      C   19   -0.17048      1.99902     4.15208    0.01938     6.17048
      C   20   -0.32953      1.99901     4.29986    0.03065     6.32953
      C   21   -0.16942      1.99902     4.14974    0.02067     6.16942
      C   22   -0.15690      1.99897     4.13309    0.02485     6.15690
      C   23   -0.14358      1.99907     4.12814    0.01637     6.14358
      C   24   -0.15385      1.99896     4.13144    0.02346     6.15385
      C   25   -0.16398      1.99904     4.14622    0.01872     6.16398
      C   26   -0.32546      1.99905     4.29507    0.03134     6.32546
      C   27   -0.17148      1.99902     4.15278    0.01968     6.17148
      C   28   -0.14746      1.99896     4.12319    0.02531     6.14746
      C   29   -0.13925      1.99906     4.12401    0.01619     6.13925
      C   30   -0.13578      1.99898     4.11218    0.02462     6.13578
      C   31   -0.16586      1.99904     4.14848    0.01834     6.16586
      C   32   -0.32476      1.99904     4.29453    0.03119     6.32476
      C   33   -0.15839      1.99901     4.13981    0.01956     6.15839
      C   34   -0.14583      1.99897     4.12150    0.02536     6.14583
      C   35   -0.14807      1.99906     4.13253    0.01649     6.14807
      C   36   -0.15145      1.99897     4.12785    0.02463     6.15145
      C   37   -0.15924      1.99904     4.14221    0.01799     6.15924
      H   38    0.24974      0.00000     0.74792    0.00234     0.75026
      H   39    0.25537      0.00000     0.74227    0.00237     0.74463
      H   40    0.24127      0.00000     0.75725    0.00148     0.75873
      H   41    0.25250      0.00000     0.74617    0.00132     0.74750
      H   42    0.24636      0.00000     0.75153    0.00211     0.75364
      H   43    0.27884      0.00000     0.71847    0.00269     0.72116
      H   44    0.25751      0.00000     0.74115    0.00133     0.74249
      H   45    0.25006      0.00000     0.74817    0.00178     0.74994
      H   46    0.25048      0.00000     0.74677    0.00275     0.74952
      H   47    0.25450      0.00000     0.74415    0.00135     0.74550
      H   48    0.24892      0.00000     0.74969    0.00139     0.75108
      H   49    0.24740      0.00000     0.75034    0.00226     0.75260
      H   50    0.25816      0.00000     0.74051    0.00133     0.74184
      H   51    0.24892      0.00000     0.74974    0.00135     0.75108
      C   52   -0.09561      1.99908     4.07104    0.02550     6.09561
      H   53    0.25844      0.00000     0.73930    0.00227     0.74156
      H   54    0.25760      0.00000     0.74079    0.00162     0.74240
      C   55   -0.10859      1.99909     4.08425    0.02526     6.10859
      H   56    0.21972      0.00000     0.77722    0.00306     0.78028
      N   57   -0.42770      1.99957     5.40202    0.02611     7.42770
      C   58   -0.43902      1.99941     4.42656    0.01305     6.43902
      C   59   -0.43126      1.99939     4.41823    0.01364     6.43126
      H   60    0.21099      0.00000     0.78756    0.00145     0.78901
      H   61    0.21200      0.00000     0.78691    0.00109     0.78800
      H   62    0.18359      0.00000     0.81311    0.00329     0.81641
      H   63    0.21554      0.00000     0.78305    0.00141     0.78446
      H   64    0.17310      0.00000     0.82441    0.00250     0.82690
      H   65    0.21409      0.00000     0.78428    0.00163     0.78591
      C   66   -0.21558      1.99922     4.19850    0.01787     6.21558
      C   67   -0.20627      1.99922     4.18917    0.01788     6.20627
      C   68   -0.23186      1.99909     4.21360    0.01917     6.23186
      C   69   -0.02558      1.99906     4.00517    0.02136     6.02558
      C   70   -0.22210      1.99912     4.20460    0.01839     6.22210
      C   71   -0.20658      1.99921     4.18986    0.01750     6.20658
      H   72    0.22116      0.00000     0.77770    0.00114     0.77884
      H   73    0.22033      0.00000     0.77850    0.00117     0.77967
      H   74    0.22227      0.00000     0.77561    0.00212     0.77773
      H   75    0.21572      0.00000     0.78277    0.00152     0.78428
      H   76    0.22178      0.00000     0.77703    0.00119     0.77822
      N   77   -0.41141      1.99956     5.38491    0.02694     7.41141
      H   78    0.20289      0.00000     0.79236    0.00475     0.79711
      C   79   -0.43252      1.99940     4.42298    0.01014     6.43252
      C   80   -0.42778      1.99940     4.41767    0.01071     6.42778
      H   81    0.17694      0.00000     0.82039    0.00268     0.82306
      H   82    0.21602      0.00000     0.78266    0.00132     0.78398
      H   83    0.20678      0.00000     0.79176    0.00146     0.79322
      H   84    0.16883      0.00000     0.82807    0.00309     0.83117
      H   85    0.21352      0.00000     0.78494    0.00155     0.78648
      H   86    0.20708      0.00000     0.79069    0.00223     0.79292
      C   87   -0.22628      1.99922     4.20918    0.01788     6.22628
      C   88   -0.21205      1.99922     4.19525    0.01758     6.21205
      C   89   -0.22235      1.99906     4.20475    0.01854     6.22235
      C   90   -0.00411      1.99906     3.98329    0.02176     6.00411
      C   91   -0.22846      1.99908     4.21063    0.01875     6.22846
      C   92   -0.21277      1.99921     4.19594    0.01762     6.21277
      H   93    0.22302      0.00000     0.77581    0.00116     0.77698
      H   94    0.22841      0.00000     0.76970    0.00189     0.77159
      H   95    0.21974      0.00000     0.77830    0.00196     0.78026
      C   96    0.95062      1.99912     3.00311    0.04715     5.04938
      F   97   -0.30916      1.99992     7.30097    0.00826     9.30916
      F   98   -0.30772      1.99992     7.29926    0.00853     9.30772
      F   99   -0.31446      1.99993     7.30625    0.00828     9.31446
      C  100    0.94979      1.99913     3.00343    0.04765     5.05021
      F  101   -0.31076      1.99992     7.30255    0.00829     9.31076
      F  102   -0.31122      1.99993     7.30288    0.00842     9.31122
      F  103   -0.30586      1.99992     7.29719    0.00875     9.30586
      C  104    0.94987      1.99912     3.00373    0.04729     5.05013
      F  105   -0.30651      1.99992     7.29827    0.00833     9.30651
      F  106   -0.30631      1.99992     7.29781    0.00858     9.30631
      F  107   -0.31607      1.99993     7.30742    0.00872     9.31607
      C  108    0.94980      1.99911     3.00368    0.04741     5.05020
      F  109   -0.31864      1.99993     7.31023    0.00849     9.31864
      F  110   -0.30583      1.99992     7.29734    0.00857     9.30583
      F  111   -0.30542      1.99992     7.29684    0.00866     9.30542
      C  112    0.94965      1.99913     3.00358    0.04764     5.05035
      F  113   -0.31283      1.99993     7.30458    0.00833     9.31283
      F  114   -0.31078      1.99992     7.30233    0.00852     9.31078
      F  115   -0.31043      1.99992     7.30197    0.00854     9.31043
      C  116    0.95063      1.99911     3.00313    0.04712     5.04937
      F  117   -0.30889      1.99992     7.30046    0.00850     9.30889
      F  118   -0.31838      1.99993     7.30989    0.00856     9.31838
      F  119   -0.31118      1.99992     7.30298    0.00828     9.31118
      C  120    0.95107      1.99912     3.00254    0.04728     5.04893
      F  121   -0.30564      1.99992     7.29682    0.00890     9.30564
      F  122   -0.30715      1.99992     7.29869    0.00853     9.30715
      F  123   -0.31990      1.99993     7.31145    0.00852     9.31990
      C  124    0.95186      1.99913     3.00028    0.04874     5.04814
      F  125   -0.30949      1.99992     7.30108    0.00848     9.30949
      F  126   -0.31558      1.99993     7.30691    0.00874     9.31558
      F  127   -0.30556      1.99992     7.29736    0.00828     9.30556
      H  128    0.22123      0.00000     0.77758    0.00118     0.77877
      H  129    0.22771      0.00000     0.77105    0.00124     0.77229
      H  130    0.27138      0.00000     0.72635    0.00227     0.72862
      H  131    0.25982      0.00000     0.73827    0.00191     0.74018
 =======================================================================
   * Total *   -0.00000    209.92392   476.09891    1.97717   688.00000

 1\1\GINC-NC209\SP\RPBE1PBE\Gen\C60H42F24Fe1N2P2\MACKK4\02-Dec-2021\0\\
 # PBE1PBE gen pseudo=read int=(grid=ultrafine) empiricaldispersion=GD3
 BJ pop=nbo guess=read geom=check\\M003_1_2 title\\0,1\Fe,0,-0.00624039
 35,-1.4820415156,1.682749451\P,0,1.7931195319,-0.0596371444,-0.7914608
 11\P,0,-1.7898273307,0.29775939,-0.5460468326\C,0,1.5048323527,-1.4078
 53469,0.3905751188\C,0,0.5637822107,-2.4419150158,-0.0055125036\C,0,0.
 4763529415,-3.4026550887,1.0465034313\C,0,1.3386888691,-2.9786266443,2
 .1011165119\C,0,2.0045156965,-1.7559193306,1.7204303548\C,0,-1.5210086

 Normal termination of Gaussian 09 at Thu Dec  2 10:16:40 2021.
