 Gaussian 16, Revision B.01,

 ----------------------------------------------------------------------
 # PBE1PBE gen pseudo=read int=(grid=ultrafine) empiricaldispersion=GD3
 BJ nmr=giao
 ----------------------------------------------------------------------

 --------------
 M003_1_1 title
 --------------
 Symbolic Z-matrix:
 Charge =  0 Multiplicity = 1

 SCF Done:  E(RPBE1PBE) =  -6669.04805774     A.U. after   29 cycles

      1  Fe   Isotropic = -6120.3829   Anisotropy =  7718.6692

      2  P    Isotropic =   220.3269   Anisotropy =   109.7778

      3  P    Isotropic =   237.2738   Anisotropy =   148.2358

      4  C    Isotropic =   111.3588   Anisotropy =    83.8632

      5  C    Isotropic =    95.9371   Anisotropy =    80.5218

      6  C    Isotropic =    99.9200   Anisotropy =   107.5513

      7  C    Isotropic =   106.0631   Anisotropy =    85.9551

      8  C    Isotropic =    86.3635   Anisotropy =    81.4766

      9  C    Isotropic =   109.9942   Anisotropy =    78.1578

     10  C    Isotropic =    77.2420   Anisotropy =    96.3456

     11  C    Isotropic =   108.2382   Anisotropy =    92.9702

     12  C    Isotropic =   104.8324   Anisotropy =   100.3064

     13  C    Isotropic =   107.9368   Anisotropy =    81.0279

     14  C    Isotropic =    41.1225   Anisotropy =   177.7009

     15  C    Isotropic =    40.2130   Anisotropy =   205.1364

     16  C    Isotropic =    48.6295   Anisotropy =   159.1585

     17  C    Isotropic =    52.9358   Anisotropy =   191.6152

     18  C    Isotropic =    48.8939   Anisotropy =   159.4501

     19  C    Isotropic =    46.6076   Anisotropy =   199.6213

     20  C    Isotropic =    41.9019   Anisotropy =   181.5146

     21  C    Isotropic =    40.6680   Anisotropy =   209.2147

     22  C    Isotropic =    46.2853   Anisotropy =   161.3155

     23  C    Isotropic =    52.4627   Anisotropy =   193.4183

     24  C    Isotropic =    46.0645   Anisotropy =   160.4066

     25  C    Isotropic =    33.3311   Anisotropy =   191.7935

     26  C    Isotropic =    43.0324   Anisotropy =   180.3685

     27  C    Isotropic =    41.3899   Anisotropy =   200.8641

     28  C    Isotropic =    47.0179   Anisotropy =   161.2888

     29  C    Isotropic =    50.4417   Anisotropy =   196.9174

     30  C    Isotropic =    42.9919   Anisotropy =   168.0297

     31  C    Isotropic =    37.8574   Anisotropy =   207.1480

     32  C    Isotropic =    41.4716   Anisotropy =   190.5156

     33  C    Isotropic =    43.0601   Anisotropy =   203.7214

     34  C    Isotropic =    47.0887   Anisotropy =   161.4879

     35  C    Isotropic =    54.3314   Anisotropy =   191.3168

     36  C    Isotropic =    46.5021   Anisotropy =   161.5828

     37  C    Isotropic =    35.2127   Anisotropy =   201.6683

     38  H    Isotropic =    26.5029   Anisotropy =     6.1991

     39  H    Isotropic =    27.8233   Anisotropy =     7.7404

     40  H    Isotropic =    23.4816   Anisotropy =    15.1090

     41  H    Isotropic =    23.2175   Anisotropy =     9.4807

     42  H    Isotropic =    23.6627   Anisotropy =    17.8207

     43  H    Isotropic =    22.5008   Anisotropy =    10.7822

     44  H    Isotropic =    22.9983   Anisotropy =    10.8648

     45  H    Isotropic =    21.2167   Anisotropy =    13.0552

     46  H    Isotropic =    23.1759   Anisotropy =    15.7154

     47  H    Isotropic =    22.9183   Anisotropy =     8.9022

     48  H    Isotropic =    20.7433   Anisotropy =    17.5026

     49  H    Isotropic =    23.6088   Anisotropy =    15.4887

     50  H    Isotropic =    22.9968   Anisotropy =     9.3892

     51  H    Isotropic =    21.6820   Anisotropy =    15.3384

     52  Cl   Isotropic =   776.4564   Anisotropy =   359.7531

     53  Cl   Isotropic =   840.0508   Anisotropy =   561.2425

     54  Pd   Isotropic =  -152.6987   Anisotropy =   239.2832

     55  C    Isotropic =   116.1789   Anisotropy =    30.6194

     56  H    Isotropic =    27.5966   Anisotropy =    10.9878

     57  H    Isotropic =    27.4084   Anisotropy =     4.6130

     58  C    Isotropic =   118.0306   Anisotropy =    42.4140

     59  H    Isotropic =    27.3151   Anisotropy =     6.0878

     60  N    Isotropic =   201.5605   Anisotropy =    60.1821

     61  C    Isotropic =   140.7729   Anisotropy =    54.7723

     62  C    Isotropic =   145.5182   Anisotropy =    47.7687

     63  H    Isotropic =    29.5959   Anisotropy =     9.3722

     64  H    Isotropic =    29.3824   Anisotropy =    11.1408

     65  H    Isotropic =    30.4313   Anisotropy =     8.0126

     66  H    Isotropic =    29.9422   Anisotropy =    10.8197

     67  H    Isotropic =    29.7114   Anisotropy =    10.1105

     68  H    Isotropic =    29.6175   Anisotropy =     7.2013

     69  C    Isotropic =    51.0659   Anisotropy =   189.5109

     70  C    Isotropic =    51.7052   Anisotropy =   187.4273

     71  C    Isotropic =    50.9616   Anisotropy =   183.0290

     72  C    Isotropic =    40.4428   Anisotropy =   191.5790

     73  C    Isotropic =    48.0606   Anisotropy =   165.8441

     74  C    Isotropic =    50.4409   Anisotropy =   187.0754

     75  H    Isotropic =    23.7815   Anisotropy =     3.5867

     76  H    Isotropic =    23.7523   Anisotropy =     6.5578

     77  H    Isotropic =    23.8779   Anisotropy =    11.3610

     78  H    Isotropic =    24.5149   Anisotropy =     9.6926

     79  H    Isotropic =    23.8483   Anisotropy =     7.8422

     80  N    Isotropic =   191.1128   Anisotropy =    59.6111

     81  H    Isotropic =    29.1478   Anisotropy =    14.9789

     82  C    Isotropic =   139.6002   Anisotropy =    61.6999

     83  C    Isotropic =   140.1581   Anisotropy =    54.2972

     84  H    Isotropic =    30.1524   Anisotropy =     7.9517

     85  H    Isotropic =    29.5985   Anisotropy =     7.1476

     86  H    Isotropic =    29.5278   Anisotropy =    12.6095

     87  H    Isotropic =    29.6342   Anisotropy =     5.4666

     88  H    Isotropic =    29.2863   Anisotropy =    10.7445

     89  H    Isotropic =    29.3620   Anisotropy =     7.8077

     90  C    Isotropic =    51.7060   Anisotropy =   187.3850

     91  C    Isotropic =    50.6969   Anisotropy =   190.3412

     92  C    Isotropic =    49.0762   Anisotropy =   175.3035

     93  C    Isotropic =    30.0859   Anisotropy =   205.8026

     94  C    Isotropic =    52.4345   Anisotropy =   191.3842

     95  C    Isotropic =    50.4028   Anisotropy =   189.4607

     96  H    Isotropic =    23.7475   Anisotropy =     3.9542

     97  H    Isotropic =    24.1333   Anisotropy =     6.5055

     98  H    Isotropic =    23.6032   Anisotropy =     9.9755

     99  C    Isotropic =    48.5293   Anisotropy =    15.7818

    100  F    Isotropic =   238.7408   Anisotropy =   145.4353

    101  F    Isotropic =   221.4771   Anisotropy =   147.9071

    102  F    Isotropic =   250.6515   Anisotropy =   133.7758

    103  C    Isotropic =    49.0205   Anisotropy =    14.4710

    104  F    Isotropic =   223.6388   Anisotropy =   151.8200

    105  F    Isotropic =   232.6498   Anisotropy =   149.0633

    106  F    Isotropic =   252.7504   Anisotropy =   116.1906

    107  C    Isotropic =    48.8252   Anisotropy =    14.8351

    108  F    Isotropic =   253.2531   Anisotropy =   130.1669

    109  F    Isotropic =   214.4001   Anisotropy =   142.1600

    110  F    Isotropic =   237.6496   Anisotropy =   142.0114

    111  C    Isotropic =    48.3560   Anisotropy =    14.7899

    112  F    Isotropic =   233.5465   Anisotropy =   148.4907

    113  F    Isotropic =   252.4978   Anisotropy =   130.5647

    114  F    Isotropic =   222.5545   Anisotropy =   141.7292

    115  C    Isotropic =    48.8767   Anisotropy =    14.0467

    116  F    Isotropic =   246.9170   Anisotropy =   141.2127

    117  F    Isotropic =   222.2853   Anisotropy =   144.1837

    118  F    Isotropic =   245.1609   Anisotropy =   138.9038

    119  C    Isotropic =    48.3821   Anisotropy =    14.4651

    120  F    Isotropic =   252.6686   Anisotropy =   128.2674

    121  F    Isotropic =   240.1519   Anisotropy =   144.4465

    122  F    Isotropic =   216.9723   Anisotropy =   151.7790

    123  C    Isotropic =    48.6973   Anisotropy =    14.7487

    124  F    Isotropic =   243.9483   Anisotropy =   138.2883

    125  F    Isotropic =   215.9031   Anisotropy =   147.1706

    126  F    Isotropic =   243.1562   Anisotropy =   129.0236

    127  C    Isotropic =    49.8491   Anisotropy =    18.7866

    128  F    Isotropic =   226.4514   Anisotropy =   132.8714

    129  F    Isotropic =   223.9503   Anisotropy =   148.9805

    130  F    Isotropic =   256.2250   Anisotropy =   126.4799

    131  H    Isotropic =    23.5961   Anisotropy =     8.2463

    132  H    Isotropic =    23.7364   Anisotropy =     5.0909

    133  H    Isotropic =    29.7133   Anisotropy =    18.1280

    134  H    Isotropic =    27.6120   Anisotropy =     8.3309

 Normal termination of Gaussian 16 at Fri Apr 29 17:54:44 2022.
 Gaussian 16:  ES64L-G16RevB.01 20-Dec-2017

 ----------------------------------------------------------------------
 # PBE1PBE gen pseudo=read int=(grid=ultrafine) empiricaldispersion=GD3
 BJ pop=nbo guess=read geom=check
 ----------------------------------------------------------------------

 --------------
 M003_1_1 title
 --------------
 Structure from the checkpoint file:  "M003_1_1_SPE.chk"
 Charge =  0 Multiplicity = 1

                         Standard orientation:
 ---------------------------------------------------------------------
 Center     Atomic      Atomic             Coordinates (Angstroms)
 Number     Number       Type             X           Y           Z
 ---------------------------------------------------------------------
      1         26           0       -0.034051   -1.566711    1.650015
      2         15           0        1.783403   -0.076026   -0.775131
      3         15           0       -1.795801    0.301034   -0.538057
      4          6           0        1.492094   -1.449075    0.375833
      5          6           0        0.569630   -2.488623   -0.048084
      6          6           0        0.485145   -3.467788    0.987605
      7          6           0        1.328805   -3.048718    2.059003
      8          6           0        1.980175   -1.810192    1.706384
      9          6           0       -1.547343   -0.341152    1.161991
     10          6           0       -2.065922   -1.476846    1.926450
     11          6           0       -1.385221   -1.465890    3.196764
     12          6           0       -0.490853   -0.354859    3.250972
     13          6           0       -0.578470    0.340149    2.005204
     14          6           0        3.345495   -0.577824   -1.603194
     15          6           0        4.178522    0.384512   -2.200843
     16          6           0        5.376996   -0.011955   -2.807772
     17          6           0        5.751057   -1.361443   -2.834464
     18          6           0        4.910396   -2.317214   -2.250330
     19          6           0        3.707615   -1.931907   -1.643648
     20          6           0        2.270635    1.481359    0.084743
     21          6           0        3.538164    1.655811    0.673802
     22          6           0        3.878173    2.899240    1.225809
     23          6           0        2.968341    3.968196    1.210416
     24          6           0        1.715425    3.791794    0.617750
     25          6           0        1.375110    2.560859    0.038226
     26          6           0       -2.463096    1.978758   -0.139583
     27          6           0       -3.133402    2.170193    1.079867
     28          6           0       -3.669016    3.424061    1.404470
     29          6           0       -3.522874    4.501874    0.526155
     30          6           0       -2.845830    4.310605   -0.687288
     31          6           0       -2.320854    3.059030   -1.030681
     32          6           0       -3.236044   -0.610085   -1.229685
     33          6           0       -4.554978   -0.249915   -0.921114
     34          6           0       -5.622530   -1.001425   -1.434224
     35          6           0       -5.384987   -2.106007   -2.260598
     36          6           0       -4.064706   -2.443263   -2.590007
     37          6           0       -2.992858   -1.695589   -2.086554
     38          1           0        0.014680   -2.481207   -0.987656
     39          1           0       -0.003555    1.222188    1.723618
     40          1           0        3.903211    1.440710   -2.192407
     41          1           0        6.691288   -1.663244   -3.302884
     42          1           0        3.063623   -2.692713   -1.197782
     43          1           0        4.244325    0.817221    0.695094
     44          1           0        3.245539    4.936025    1.634408
     45          1           0        0.418647    2.445902   -0.483751
     46          1           0       -3.243628    1.343728    1.785301
     47          1           0       -3.925695    5.484385    0.785759
     48          1           0       -1.816376    2.914582   -1.990836
     49          1           0       -4.762745    0.617971   -0.289422
     50          1           0       -6.218628   -2.690522   -2.654956
     51          1           0       -1.967013   -1.939507   -2.378825
     52         17           0        1.479541    0.801800   -3.821957
     53         17           0       -1.827836    0.953007   -3.593568
     54         46           0       -0.066645    0.399668   -2.085296
     55          6           0        3.026167   -1.078335    2.519631
     56          1           0        0.199139   -0.129282    4.064100
     57          1           0       -1.525244   -2.211846    3.977311
     58          6           0       -3.224475   -2.422268    1.633354
     59          1           0        2.809997    0.003581    2.431503
     60          7           0        4.367375   -1.240108    1.887534
     61          6           0        5.419581   -0.593993    2.676924
     62          6           0        4.770204   -2.604973    1.547568
     63          1           0        6.322078   -0.485892    2.051459
     64          1           0        5.096518    0.407808    2.997117
     65          1           0        5.690820   -1.169115    3.589323
     66          1           0        5.617260   -2.562284    0.843158
     67          1           0        5.096560   -3.201639    2.428700
     68          1           0        3.947035   -3.138658    1.049302
     69          6           0        2.943407   -1.822247    6.814818
     70          6           0        3.236836   -2.876366    5.938053
     71          6           0        3.254448   -2.663096    4.552451
     72          6           0        2.974850   -1.389458    4.015338
     73          6           0        2.713392   -0.335358    4.911751
     74          6           0        2.686201   -0.545331    6.296902
     75          1           0        2.927257   -1.993003    7.895834
     76          1           0        3.456414   -3.873458    6.333839
     77          1           0        3.492441   -3.498478    3.888389
     78          1           0        2.540114    0.671780    4.511757
     79          1           0        2.473396    0.290641    6.971185
     80          7           0       -4.237226   -2.289117    2.712784
     81          1           0       -3.660472   -2.139475    0.653640
     82          6           0       -5.412626   -3.116681    2.409157
     83          6           0       -4.674270   -0.902601    2.903561
     84          1           0       -5.935373   -2.796609    1.479528
     85          1           0       -5.117548   -4.171323    2.302311
     86          1           0       -6.126418   -3.038176    3.246263
     87          1           0       -5.163179   -0.466217    2.002189
     88          1           0       -5.410232   -0.875090    3.724459
     89          1           0       -3.825295   -0.265990    3.196936
     90          6           0       -1.847027   -6.529490    1.239534
     91          6           0       -2.214710   -5.789254    0.106658
     92          6           0       -2.675471   -4.473014    0.251429
     93          6           0       -2.767925   -3.874485    1.517590
     94          6           0       -2.425755   -4.632583    2.652447
     95          6           0       -1.963085   -5.947965    2.513395
     96          1           0       -1.484922   -7.557260    1.134567
     97          1           0       -2.959227   -3.902022   -0.634854
     98          1           0       -2.556146   -4.193320    3.646117
     99          6           0       -4.339208    3.595090    2.745777
    100          9           0       -5.071720    2.491212    3.073846
    101          9           0       -3.420835    3.767789    3.736615
    102          9           0       -5.170063    4.667298    2.767141
    103          6           0       -2.701302    5.489652   -1.623305
    104          9           0       -3.904676    5.830232   -2.161753
    105          9           0       -2.244474    6.583426   -0.949587
    106          9           0       -1.846608    5.237056   -2.640391
    107          6           0       -7.027636   -0.628786   -1.028314
    108          9           0       -7.962321   -1.224468   -1.809074
    109          9           0       -7.278233   -1.005098    0.264569
    110          9           0       -7.219947    0.714277   -1.086724
    111          6           0       -3.773144   -3.592150   -3.526740
    112          9           0       -2.739917   -4.356403   -3.050132
    113          9           0       -4.847074   -4.408769   -3.678759
    114          9           0       -3.405057   -3.154518   -4.754065
    115          6           0        6.239380    1.023647   -3.490141
    116          9           0        7.548285    0.647970   -3.507601
    117          9           0        5.856452    1.217105   -4.777914
    118          9           0        6.162661    2.226531   -2.857954
    119          6           0        5.356514   -3.756218   -2.193792
    120          9           0        4.323295   -4.602745   -1.941151
    121          9           0        5.947130   -4.147073   -3.351948
    122          9           0        6.278753   -3.942908   -1.198638
    123          6           0        5.222462    3.092541    1.887233
    124          9           0        5.644002    4.379303    1.804279
    125          9           0        5.156702    2.780625    3.219491
    126          9           0        6.176712    2.300945    1.335688
    127          6           0        0.695343    4.905024    0.584116
    128          9           0        0.247927    5.116410   -0.681327
    129          9           0       -0.389838    4.578189    1.346184
    130          9           0        1.191656    6.074217    1.056257
    131          1           0       -2.150374   -6.228391   -0.894171
    132          1           0       -1.699782   -6.526979    3.404988
    133          1           0       -0.164943   -4.340280    0.988970
    134          1           0        1.408431   -3.540340    3.027065
 ---------------------------------------------------------------------

 SCF Done:  E(RPBE1PBE) =  -6669.04805774     A.U. after    1 cycles

 The electronic state is 1-A.
 Alpha  occ. eigenvalues -- -101.64498-101.64165 -77.30147 -77.30038 -24.83011
 Alpha  occ. eigenvalues --  -24.83000 -24.82997 -24.82715 -24.82619 -24.82585
 Alpha  occ. eigenvalues --  -24.82489 -24.82474 -24.82436 -24.82288 -24.82272
 Alpha  occ. eigenvalues --  -24.82218 -24.82168 -24.82078 -24.82019 -24.81847
 Alpha  occ. eigenvalues --  -24.81808 -24.81596 -24.81296 -24.81259 -24.81191
 Alpha  occ. eigenvalues --  -24.80976 -24.80888 -24.80791 -14.41233 -14.40570
 Alpha  occ. eigenvalues --  -10.50738 -10.50562 -10.50128 -10.50032 -10.50017
 Alpha  occ. eigenvalues --  -10.49612 -10.48942 -10.48914 -10.30572 -10.30473
 Alpha  occ. eigenvalues --  -10.30374 -10.30065 -10.30007 -10.29864 -10.29856
 Alpha  occ. eigenvalues --  -10.29800 -10.29793 -10.29715 -10.29550 -10.29480
 Alpha  occ. eigenvalues --  -10.29421 -10.29342 -10.29288 -10.29279 -10.29222
 Alpha  occ. eigenvalues --  -10.29205 -10.29197 -10.29189 -10.29148 -10.28962
 Alpha  occ. eigenvalues --  -10.28950 -10.28929 -10.28904 -10.28730 -10.28385
 Alpha  occ. eigenvalues --  -10.28325 -10.28263 -10.28251 -10.28081 -10.28060
 Alpha  occ. eigenvalues --  -10.27624 -10.27356 -10.27233 -10.27209 -10.26732
 Alpha  occ. eigenvalues --  -10.26232 -10.25834 -10.25830 -10.25788 -10.25778
 Alpha  occ. eigenvalues --  -10.25759 -10.25679 -10.25615 -10.25614 -10.25459
 Alpha  occ. eigenvalues --  -10.25296 -10.25235 -10.25117 -10.25052 -10.24953
 Alpha  occ. eigenvalues --   -9.47014  -9.46662  -7.20218  -7.19892  -7.19734
 Alpha  occ. eigenvalues --   -7.19682  -7.19379  -7.19310  -6.69259  -6.69177
 Alpha  occ. eigenvalues --   -4.82861  -4.82844  -4.82775  -4.82758  -4.82589
 Alpha  occ. eigenvalues --   -4.82515  -3.64747  -3.55044  -2.29260  -2.25091
 Alpha  occ. eigenvalues --   -2.25024  -2.22829  -2.22526  -2.19368  -1.36533
 Alpha  occ. eigenvalues --   -1.36363  -1.35934  -1.35850  -1.35793  -1.35456
 Alpha  occ. eigenvalues --   -1.34767  -1.34709  -1.28283  -1.28118  -1.27822
 Alpha  occ. eigenvalues --   -1.27737  -1.27673  -1.27588  -1.27541  -1.27267
 Alpha  occ. eigenvalues --   -1.27179  -1.27154  -1.27082  -1.26696  -1.26467
 Alpha  occ. eigenvalues --   -1.26417  -1.26097  -1.26012  -0.98039  -0.97646
 Alpha  occ. eigenvalues --   -0.95669  -0.95378  -0.94839  -0.94281  -0.93917
 Alpha  occ. eigenvalues --   -0.93656  -0.90499  -0.90139  -0.86733  -0.86169
 Alpha  occ. eigenvalues --   -0.86144  -0.85887  -0.85569  -0.85176  -0.83453
 Alpha  occ. eigenvalues --   -0.83370  -0.82875  -0.82412  -0.79484  -0.79041
 Alpha  occ. eigenvalues --   -0.78947  -0.78714  -0.78279  -0.78111  -0.77422
 Alpha  occ. eigenvalues --   -0.76693  -0.76408  -0.76109  -0.75989  -0.75588
 Alpha  occ. eigenvalues --   -0.75302  -0.75257  -0.74643  -0.74577  -0.74305
 Alpha  occ. eigenvalues --   -0.73546  -0.73096  -0.72688  -0.71953  -0.71794
 Alpha  occ. eigenvalues --   -0.69039  -0.68503  -0.68410  -0.68134  -0.67780
 Alpha  occ. eigenvalues --   -0.67532  -0.66465  -0.66389  -0.65491  -0.65393
 Alpha  occ. eigenvalues --   -0.65119  -0.64151  -0.63859  -0.63779  -0.63520
 Alpha  occ. eigenvalues --   -0.63486  -0.63353  -0.63232  -0.62900  -0.62859
 Alpha  occ. eigenvalues --   -0.62813  -0.62802  -0.62670  -0.62564  -0.62462
 Alpha  occ. eigenvalues --   -0.62382  -0.62369  -0.62026  -0.61806  -0.61678
 Alpha  occ. eigenvalues --   -0.61617  -0.61466  -0.60773  -0.60605  -0.59964
 Alpha  occ. eigenvalues --   -0.59882  -0.58061  -0.57480  -0.57157  -0.57079
 Alpha  occ. eigenvalues --   -0.56748  -0.56616  -0.56458  -0.55920  -0.55431
 Alpha  occ. eigenvalues --   -0.55258  -0.55114  -0.54930  -0.54513  -0.54030
 Alpha  occ. eigenvalues --   -0.53866  -0.53378  -0.52686  -0.52501  -0.52187
 Alpha  occ. eigenvalues --   -0.51650  -0.51410  -0.51308  -0.51151  -0.51133
 Alpha  occ. eigenvalues --   -0.50884  -0.50769  -0.50646  -0.50626  -0.50554
 Alpha  occ. eigenvalues --   -0.50387  -0.50359  -0.50288  -0.50199  -0.50042
 Alpha  occ. eigenvalues --   -0.49595  -0.49378  -0.49235  -0.49171  -0.49147
 Alpha  occ. eigenvalues --   -0.48846  -0.48774  -0.48560  -0.48418  -0.48154
 Alpha  occ. eigenvalues --   -0.48086  -0.48028  -0.47729  -0.47642  -0.47393
 Alpha  occ. eigenvalues --   -0.47299  -0.47210  -0.47192  -0.47034  -0.46931
 Alpha  occ. eigenvalues --   -0.46873  -0.46786  -0.46608  -0.46567  -0.46469
 Alpha  occ. eigenvalues --   -0.46225  -0.46160  -0.46009  -0.45983  -0.45928
 Alpha  occ. eigenvalues --   -0.45820  -0.45784  -0.45658  -0.45598  -0.45469
 Alpha  occ. eigenvalues --   -0.45432  -0.45391  -0.45227  -0.45165  -0.45094
 Alpha  occ. eigenvalues --   -0.45062  -0.44985  -0.44889  -0.44751  -0.44701
 Alpha  occ. eigenvalues --   -0.44665  -0.44640  -0.44398  -0.44345  -0.44202
 Alpha  occ. eigenvalues --   -0.44064  -0.43957  -0.43719  -0.43705  -0.43633
 Alpha  occ. eigenvalues --   -0.43409  -0.43131  -0.42974  -0.42710  -0.42411
 Alpha  occ. eigenvalues --   -0.42191  -0.41593  -0.41470  -0.41166  -0.41119
 Alpha  occ. eigenvalues --   -0.40767  -0.40740  -0.40494  -0.40454  -0.40369
 Alpha  occ. eigenvalues --   -0.40126  -0.39970  -0.39955  -0.39680  -0.39602
 Alpha  occ. eigenvalues --   -0.39500  -0.39371  -0.39031  -0.38953  -0.38287
 Alpha  occ. eigenvalues --   -0.38021  -0.37631  -0.37298  -0.37078  -0.36821
 Alpha  occ. eigenvalues --   -0.34614  -0.34435  -0.34083  -0.33474  -0.33346
 Alpha  occ. eigenvalues --   -0.32965  -0.32939  -0.32592  -0.32263  -0.31930
 Alpha  occ. eigenvalues --   -0.31717  -0.31517  -0.31374  -0.30501  -0.30096
 Alpha  occ. eigenvalues --   -0.29825  -0.29455  -0.29284  -0.28967  -0.28882
 Alpha  occ. eigenvalues --   -0.28618  -0.27879  -0.27643  -0.27126  -0.26768
 Alpha  occ. eigenvalues --   -0.26615  -0.26530  -0.26058  -0.25572  -0.25436
 Alpha virt. eigenvalues --   -0.10631  -0.08993  -0.08710  -0.08427  -0.08006
 Alpha virt. eigenvalues --   -0.07248  -0.06991  -0.06394  -0.06124  -0.04563
 Alpha virt. eigenvalues --   -0.04426  -0.03986  -0.03760  -0.03678  -0.03520

 Mulliken charges:
               1
     1  Fe  -1.236417
     2  P    0.257797
     3  P    0.068892
     4  C    0.242375
     5  C   -0.212945
     6  C    0.053240
     7  C   -0.107772
     8  C    0.364635
     9  C    0.357605
    10  C    0.370053
    11  C   -0.097297
    12  C    0.003645
    13  C   -0.191934
    14  C    0.176201
    15  C   -0.331766
    16  C    0.157646
    17  C   -0.293052
    18  C    0.085959
    19  C   -0.259857
    20  C   -0.055745
    21  C   -0.293580
    22  C    0.115837
    23  C   -0.252935
    24  C    0.059834
    25  C   -0.168109
    26  C    0.092830
    27  C   -0.191826
    28  C    0.078339
    29  C   -0.282076
    30  C    0.146174
    31  C   -0.292657
    32  C    0.133797
    33  C   -0.249844
    34  C    0.119590
    35  C   -0.271936
    36  C    0.204789
    37  C   -0.309417
    38  H    0.125002
    39  H    0.158788
    40  H    0.176855
    41  H    0.165501
    42  H    0.203040
    43  H    0.247266
    44  H    0.176400
    45  H    0.280908
    46  H    0.133879
    47  H    0.161859
    48  H    0.230389
    49  H    0.181416
    50  H    0.174060
    51  H    0.188065
    52  Cl  -0.386913
    53  Cl  -0.373263
    54  Pd   0.018484
    55  C   -0.001603
    56  H    0.128114
    57  H    0.115426
    58  C   -0.012185
    59  H    0.128615
    60  N   -0.143221
    61  C   -0.331145
    62  C   -0.350250
    63  H    0.143604
    64  H    0.147008
    65  H    0.132455
    66  H    0.148453
    67  H    0.119094
    68  H    0.141767
    69  C   -0.125312
    70  C   -0.120116
    71  C   -0.311578
    72  C    0.094224
    73  C   -0.272610
    74  C   -0.110556
    75  H    0.126178
    76  H    0.125877
    77  H    0.169718
    78  H    0.142530
    79  H    0.126974
    80  N   -0.069041
    81  H    0.027548
    82  C   -0.328233
    83  C   -0.346317
    84  H    0.113175
    85  H    0.154472
    86  H    0.131119
    87  H    0.101040
    88  H    0.138472
    89  H    0.154467
    90  C   -0.097015
    91  C   -0.178860
    92  C   -0.124244
    93  C   -0.077348
    94  C   -0.156919
    95  C   -0.143303
    96  H    0.125516
    97  H    0.093179
    98  H    0.136861
    99  C    0.428310
   100  F   -0.161506
   101  F   -0.157604
   102  F   -0.156408
   103  C    0.456830
   104  F   -0.158124
   105  F   -0.167824
   106  F   -0.151513
   107  C    0.432770
   108  F   -0.155381
   109  F   -0.157506
   110  F   -0.154742
   111  C    0.445877
   112  F   -0.169761
   113  F   -0.159960
   114  F   -0.138794
   115  C    0.435078
   116  F   -0.164943
   117  F   -0.146720
   118  F   -0.164963
   119  C    0.446864
   120  F   -0.164964
   121  F   -0.157186
   122  F   -0.165766
   123  C    0.449695
   124  F   -0.153947
   125  F   -0.166745
   126  F   -0.155877
   127  C    0.442823
   128  F   -0.154313
   129  F   -0.165024
   130  F   -0.154256
   131  H    0.129421
   132  H    0.122317
   133  H    0.149871
   134  H    0.146131
 Sum of Mulliken charges =  -0.00000

 Dipole moment (field-independent basis, Debye):
    X=              0.6308    Y=             -6.0314    Z=             12.1403  Tot=             13.5707
 Quadrupole moment (field-independent basis, Debye-Ang):
   XX=           -590.8245   YY=           -570.2063   ZZ=           -593.4620
   XY=              5.4228   XZ=             13.0144   YZ=             -2.8300

 Summary of Natural Population Analysis:

                                       Natural Population
                Natural  -----------------------------------------------
    Atom  No    Charge         Core      Valence    Rydberg      Total
 -----------------------------------------------------------------------
     Fe    1   -0.29369     17.99005     8.25964    0.04400    26.29369
      P    2    1.23270      9.99552     3.71760    0.05418    13.76730
      P    3    1.20482      9.99565     3.74449    0.05504    13.79518
      C    4   -0.37965      1.99838     4.33629    0.04498     6.37965
      C    5   -0.19072      1.99865     4.16896    0.02312     6.19072
      C    6   -0.18089      1.99880     4.15770    0.02439     6.18089
      C    7   -0.20445      1.99868     4.18321    0.02255     6.20445
      C    8    0.02467      1.99857     3.93914    0.03761     5.97533
      C    9   -0.37876      1.99842     4.33529    0.04506     6.37876
      C   10    0.03160      1.99860     3.93244    0.03736     5.96840
      C   11   -0.19770      1.99868     4.17587    0.02316     6.19770
      C   12   -0.18707      1.99877     4.16484    0.02346     6.18707
      C   13   -0.20056      1.99864     4.17773    0.02419     6.20056
      C   14   -0.33214      1.99900     4.29736    0.03578     6.33214
      C   15   -0.12224      1.99903     4.10454    0.01867     6.12224
      C   16   -0.15103      1.99897     4.12728    0.02478     6.15103
      C   17   -0.13452      1.99907     4.11943    0.01602     6.13452
      C   18   -0.15485      1.99897     4.13089    0.02498     6.15485
      C   19   -0.15117      1.99901     4.13233    0.01983     6.15117
      C   20   -0.35594      1.99899     4.32392    0.03303     6.35594
      C   21   -0.16240      1.99903     4.14171    0.02166     6.16240
      C   22   -0.15286      1.99897     4.12926    0.02463     6.15286
      C   23   -0.13195      1.99907     4.11672    0.01617     6.13195
      C   24   -0.14832      1.99896     4.12485    0.02451     6.14832
      C   25   -0.14570      1.99903     4.12784    0.01883     6.14570
      C   26   -0.35595      1.99901     4.32257    0.03437     6.35595
      C   27   -0.16939      1.99902     4.14982    0.02055     6.16939
      C   28   -0.15173      1.99896     4.12764    0.02513     6.15173
      C   29   -0.12589      1.99906     4.11090    0.01593     6.12589
      C   30   -0.13418      1.99898     4.11052    0.02468     6.13418
      C   31   -0.14862      1.99904     4.13077    0.01882     6.14862
      C   32   -0.33203      1.99901     4.29717    0.03586     6.33203
      C   33   -0.16030      1.99900     4.14087    0.02043     6.16030
      C   34   -0.14565      1.99897     4.12162    0.02507     6.14565
      C   35   -0.14053      1.99906     4.12529    0.01618     6.14053
      C   36   -0.15221      1.99897     4.12757    0.02568     6.15221
      C   37   -0.12883      1.99900     4.11204    0.01779     6.12883
      H   38    0.26081      0.00000     0.73694    0.00225     0.73919
      H   39    0.25822      0.00000     0.73970    0.00208     0.74178
      H   40    0.25759      0.00000     0.74085    0.00156     0.74241
      H   41    0.25430      0.00000     0.74438    0.00132     0.74570
      H   42    0.24869      0.00000     0.74911    0.00220     0.75131
      H   43    0.27933      0.00000     0.71803    0.00264     0.72067
      H   44    0.26049      0.00000     0.73822    0.00129     0.73951
      H   45    0.25495      0.00000     0.74294    0.00210     0.74505
      H   46    0.25002      0.00000     0.74732    0.00266     0.74998
      H   47    0.25578      0.00000     0.74288    0.00135     0.74422
      H   48    0.28523      0.00000     0.71321    0.00156     0.71477
      H   49    0.24832      0.00000     0.74945    0.00224     0.75168
      H   50    0.26041      0.00000     0.73826    0.00133     0.73959
      H   51    0.25342      0.00000     0.74515    0.00143     0.74658
     Cl   52   -0.36004      9.99962     7.35139    0.00903    17.36004
     Cl   53   -0.38747      9.99962     7.37971    0.00814    17.38747
     Pd   54   -0.20531     35.98928    10.18891    0.02712    46.20531
      C   55   -0.09788      1.99908     4.07309    0.02571     6.09788
      H   56    0.26314      0.00000     0.73458    0.00228     0.73686
      H   57    0.26285      0.00000     0.73556    0.00159     0.73715
      C   58   -0.11263      1.99908     4.08814    0.02540     6.11263
      H   59    0.22021      0.00000     0.77665    0.00314     0.77979
      N   60   -0.42717      1.99957     5.40145    0.02615     7.42717
      C   61   -0.43872      1.99941     4.42630    0.01301     6.43872
      C   62   -0.43532      1.99938     4.42229    0.01365     6.43532
      H   63    0.21329      0.00000     0.78531    0.00141     0.78671
      H   64    0.21093      0.00000     0.78800    0.00107     0.78907
      H   65    0.18563      0.00000     0.81119    0.00318     0.81437
      H   66    0.21985      0.00000     0.77882    0.00133     0.78015
      H   67    0.17637      0.00000     0.82118    0.00245     0.82363
      H   68    0.21135      0.00000     0.78709    0.00156     0.78865
      C   69   -0.21262      1.99922     4.19562    0.01779     6.21262
      C   70   -0.20421      1.99922     4.18716    0.01783     6.20421
      C   71   -0.23248      1.99909     4.21429    0.01911     6.23248
      C   72   -0.02927      1.99905     4.00894    0.02128     6.02927
      C   73   -0.22389      1.99912     4.20638    0.01839     6.22389
      C   74   -0.20549      1.99921     4.18885    0.01744     6.20549
      H   75    0.22337      0.00000     0.77551    0.00113     0.77663
      H   76    0.22230      0.00000     0.77654    0.00116     0.77770
      H   77    0.22203      0.00000     0.77591    0.00206     0.77797
      H   78    0.21548      0.00000     0.78301    0.00151     0.78452
      H   79    0.22376      0.00000     0.77506    0.00118     0.77624
      N   80   -0.41281      1.99956     5.38657    0.02668     7.41281
      H   81    0.20895      0.00000     0.78635    0.00471     0.79105
      C   82   -0.43267      1.99940     4.42314    0.01012     6.43267
      C   83   -0.42933      1.99940     4.41673    0.01320     6.42933
      H   84    0.17959      0.00000     0.81778    0.00264     0.82041
      H   85    0.21617      0.00000     0.78252    0.00131     0.78383
      H   86    0.20841      0.00000     0.79015    0.00145     0.79159
      H   87    0.17198      0.00000     0.82537    0.00264     0.82802
      H   88    0.21575      0.00000     0.78291    0.00133     0.78425
      H   89    0.20416      0.00000     0.79396    0.00188     0.79584
      C   90   -0.22481      1.99922     4.20775    0.01785     6.22481
      C   91   -0.21167      1.99921     4.19486    0.01760     6.21167
      C   92   -0.22902      1.99908     4.21116    0.01879     6.22902
      C   93   -0.00733      1.99906     3.98663    0.02165     6.00733
      C   94   -0.22564      1.99906     4.20802    0.01857     6.22564
      C   95   -0.21206      1.99922     4.19525    0.01759     6.21206
      H   96    0.22470      0.00000     0.77414    0.00115     0.77530
      H   97    0.22362      0.00000     0.77435    0.00203     0.77638
      H   98    0.22914      0.00000     0.76896    0.00190     0.77086
      C   99    0.95149      1.99912     3.00226    0.04713     5.04851
      F  100   -0.31446      1.99993     7.30630    0.00824     9.31446
      F  101   -0.30970      1.99992     7.30151    0.00827     9.30970
      F  102   -0.30591      1.99992     7.29745    0.00854     9.30591
      C  103    0.94969      1.99913     3.00362    0.04757     5.05031
      F  104   -0.30893      1.99992     7.30072    0.00828     9.30893
      F  105   -0.31276      1.99993     7.30446    0.00837     9.31276
      F  106   -0.29804      1.99992     7.28928    0.00884     9.29804
      C  107    0.95068      1.99912     3.00295    0.04724     5.04932
      F  108   -0.30526      1.99992     7.29676    0.00858     9.30526
      F  109   -0.31782      1.99993     7.30925    0.00865     9.31782
      F  110   -0.30565      1.99992     7.29738    0.00835     9.30565
      C  111    0.95073      1.99912     3.00277    0.04739     5.04927
      F  112   -0.32149      1.99993     7.31308    0.00849     9.32149
      F  113   -0.30792      1.99992     7.29946    0.00854     9.30792
      F  114   -0.29618      1.99992     7.28767    0.00859     9.29618
      C  115    0.95101      1.99914     3.00219    0.04766     5.04899
      F  116   -0.31289      1.99993     7.30449    0.00847     9.31289
      F  117   -0.30179      1.99992     7.29335    0.00852     9.30179
      F  118   -0.31164      1.99992     7.30324    0.00847     9.31164
      C  119    0.95180      1.99911     3.00192    0.04717     5.04820
      F  120   -0.31078      1.99992     7.30255    0.00830     9.31078
      F  121   -0.30636      1.99992     7.29795    0.00848     9.30636
      F  122   -0.31917      1.99993     7.31059    0.00865     9.31917
      C  123    0.95144      1.99913     3.00219    0.04724     5.04856
      F  124   -0.30450      1.99992     7.29604    0.00854     9.30450
      F  125   -0.31789      1.99993     7.30940    0.00857     9.31789
      F  126   -0.30511      1.99992     7.29635    0.00883     9.30511
      C  127    0.95211      1.99913     3.00050    0.04826     5.04789
      F  128   -0.30323      1.99992     7.29477    0.00853     9.30323
      F  129   -0.31565      1.99993     7.30709    0.00863     9.31565
      F  130   -0.30381      1.99992     7.29567    0.00822     9.30381
      H  131    0.23013      0.00000     0.76864    0.00122     0.76987
      H  132    0.22226      0.00000     0.77656    0.00118     0.77774
      H  133    0.27698      0.00000     0.72074    0.00228     0.72302
      H  134    0.26404      0.00000     0.73409    0.00187     0.73596
 =======================================================================
   * Total *   -0.00000    265.90791   499.98927    2.10282   768.00000

 Normal termination of Gaussian 16 at Fri Apr 29 18:05:03 2022.
