 Gaussian 09, Revision E.01,

 ----------------------------------------------------------------------
 # PBE1PBE gen pseudo=read int=(grid=ultrafine) empiricaldispersion=GD3
 BJ nmr=giao
 ----------------------------------------------------------------------

 --------------
 M003_1_4 title
 --------------
 Symbolic Z-matrix:
 Charge =  0 Multiplicity = 1

 SCF Done:  E(RPBE1PBE) =  -5620.86886152     A.U. after   25 cycles

      1  Fe   Isotropic = -6358.4151   Anisotropy =  8094.3037

      2  P    Isotropic =   301.9868   Anisotropy =    56.2875

      3  P    Isotropic =   313.5029   Anisotropy =    33.5252

      4  C    Isotropic =   110.0962   Anisotropy =    82.4196

      5  C    Isotropic =   104.1119   Anisotropy =    73.0745

      6  C    Isotropic =   102.9218   Anisotropy =   104.8479

      7  C    Isotropic =   106.5862   Anisotropy =    95.8732

      8  C    Isotropic =    84.4676   Anisotropy =    95.3454

      9  C    Isotropic =   104.3643   Anisotropy =    85.8088

     10  C    Isotropic =    82.9084   Anisotropy =    95.4622

     11  C    Isotropic =   108.4543   Anisotropy =    94.5398

     12  C    Isotropic =   103.2433   Anisotropy =   104.0478

     13  C    Isotropic =   108.3046   Anisotropy =    78.0630

     14  C    Isotropic =    32.7848   Anisotropy =   201.0140

     15  C    Isotropic =    45.9488   Anisotropy =   198.5294

     16  C    Isotropic =    46.7115   Anisotropy =   161.7691

     17  C    Isotropic =    58.5105   Anisotropy =   183.7570

     18  C    Isotropic =    46.9366   Anisotropy =   160.7591

     19  C    Isotropic =    49.2444   Anisotropy =   190.1694

     20  C    Isotropic =    38.5763   Anisotropy =   202.5230

     21  C    Isotropic =    40.6863   Anisotropy =   204.8102

     22  C    Isotropic =    46.7052   Anisotropy =   162.7099

     23  C    Isotropic =    54.7440   Anisotropy =   191.2443

     24  C    Isotropic =    46.1636   Anisotropy =   160.9719

     25  C    Isotropic =    39.1390   Anisotropy =   193.0511

     26  C    Isotropic =    35.6358   Anisotropy =   206.7679

     27  C    Isotropic =    36.6808   Anisotropy =   204.7254

     28  C    Isotropic =    45.0407   Anisotropy =   166.0621

     29  C    Isotropic =    52.9351   Anisotropy =   194.2516

     30  C    Isotropic =    44.0617   Anisotropy =   167.6125

     31  C    Isotropic =    44.9665   Anisotropy =   189.7375

     32  C    Isotropic =    41.1335   Anisotropy =   203.5706

     33  C    Isotropic =    39.5327   Anisotropy =   207.4515

     34  C    Isotropic =    44.8491   Anisotropy =   165.0483

     35  C    Isotropic =    54.7322   Anisotropy =   190.9109

     36  C    Isotropic =    45.9223   Anisotropy =   162.9406

     37  C    Isotropic =    42.0193   Anisotropy =   189.3702

     38  H    Isotropic =    27.3812   Anisotropy =     6.5616

     39  H    Isotropic =    28.1730   Anisotropy =     4.7957

     40  H    Isotropic =    23.5935   Anisotropy =    18.5610

     41  H    Isotropic =    23.4023   Anisotropy =     9.8956

     42  H    Isotropic =    23.3014   Anisotropy =    14.6842

     43  H    Isotropic =    22.5283   Anisotropy =    11.9620

     44  H    Isotropic =    23.0936   Anisotropy =    10.1306

     45  H    Isotropic =    22.3370   Anisotropy =     8.2126

     46  H    Isotropic =    22.9316   Anisotropy =    15.0032

     47  H    Isotropic =    23.0136   Anisotropy =     9.1409

     48  H    Isotropic =    22.7310   Anisotropy =    11.7532

     49  H    Isotropic =    23.2963   Anisotropy =    15.3578

     50  H    Isotropic =    23.0348   Anisotropy =     9.8159

     51  H    Isotropic =    22.2753   Anisotropy =    11.8425

     52  C    Isotropic =   115.9934   Anisotropy =    42.0810

     53  H    Isotropic =    30.6013   Anisotropy =    17.6691

     54  H    Isotropic =    27.4419   Anisotropy =     4.4066

     55  C    Isotropic =   118.2417   Anisotropy =    41.4081

     56  H    Isotropic =    27.9721   Anisotropy =    12.6598

     57  N    Isotropic =   192.0858   Anisotropy =    55.5833

     58  C    Isotropic =   137.2117   Anisotropy =    58.5923

     59  C    Isotropic =   138.3989   Anisotropy =    63.4166

     60  H    Isotropic =    29.6588   Anisotropy =     9.7845

     61  H    Isotropic =    29.7291   Anisotropy =     7.6149

     62  H    Isotropic =    31.0694   Anisotropy =     8.4567

     63  H    Isotropic =    29.6558   Anisotropy =    12.3435

     64  H    Isotropic =    30.1371   Anisotropy =     8.3247

     65  H    Isotropic =    29.4392   Anisotropy =     6.9209

     66  C    Isotropic =    52.7170   Anisotropy =   186.4901

     67  C    Isotropic =    50.6487   Anisotropy =   188.5564

     68  C    Isotropic =    52.6928   Anisotropy =   191.0162

     69  C    Isotropic =    30.0995   Anisotropy =   206.6590

     70  C    Isotropic =    51.1800   Anisotropy =   173.2809

     71  C    Isotropic =    51.5941   Anisotropy =   188.3110

     72  H    Isotropic =    24.0607   Anisotropy =     4.6697

     73  H    Isotropic =    23.8542   Anisotropy =     4.6222

     74  H    Isotropic =    23.6009   Anisotropy =     9.7981

     75  H    Isotropic =    26.7797   Anisotropy =     6.6250

     76  H    Isotropic =    24.3369   Anisotropy =     8.1033

     77  N    Isotropic =   192.0286   Anisotropy =    58.2817

     78  H    Isotropic =    29.1676   Anisotropy =    14.3859

     79  C    Isotropic =   139.4111   Anisotropy =    61.7824

     80  C    Isotropic =   140.8105   Anisotropy =    53.1229

     81  H    Isotropic =    30.2544   Anisotropy =     8.0695

     82  H    Isotropic =    29.5185   Anisotropy =     6.5820

     83  H    Isotropic =    29.5135   Anisotropy =    12.0892

     84  H    Isotropic =    29.6553   Anisotropy =     6.1530

     85  H    Isotropic =    29.3729   Anisotropy =    10.3521

     86  H    Isotropic =    29.3320   Anisotropy =     7.4057

     87  C    Isotropic =    52.1398   Anisotropy =   186.1144

     88  C    Isotropic =    50.4415   Anisotropy =   188.8119

     89  C    Isotropic =    52.2939   Anisotropy =   191.3064

     90  C    Isotropic =    29.9086   Anisotropy =   204.9891

     91  C    Isotropic =    49.5480   Anisotropy =   173.4152

     92  C    Isotropic =    50.9925   Anisotropy =   189.2792

     93  H    Isotropic =    23.7923   Anisotropy =     3.6985

     94  H    Isotropic =    23.4471   Anisotropy =     9.9541

     95  H    Isotropic =    24.1591   Anisotropy =     5.9915

     96  C    Isotropic =    48.5159   Anisotropy =    15.6102

     97  F    Isotropic =   220.8587   Anisotropy =   147.8315

     98  F    Isotropic =   250.1590   Anisotropy =   135.1685

     99  F    Isotropic =   242.3779   Anisotropy =   142.0119

    100  C    Isotropic =    48.9189   Anisotropy =    12.3845

    101  F    Isotropic =   221.6944   Anisotropy =   148.2229

    102  F    Isotropic =   240.1681   Anisotropy =   144.2953

    103  F    Isotropic =   251.8325   Anisotropy =   123.9046

    104  C    Isotropic =    48.7535   Anisotropy =    15.0390

    105  F    Isotropic =   239.2255   Anisotropy =   141.5155

    106  F    Isotropic =   253.2057   Anisotropy =   130.7974

    107  F    Isotropic =   213.2635   Anisotropy =   141.1284

    108  C    Isotropic =    48.4980   Anisotropy =    13.5082

    109  F    Isotropic =   216.3176   Anisotropy =   148.4928

    110  F    Isotropic =   246.9674   Anisotropy =   136.3132

    111  F    Isotropic =   245.5306   Anisotropy =   134.4372

    112  C    Isotropic =    48.5264   Anisotropy =    15.9439

    113  F    Isotropic =   253.2879   Anisotropy =   133.1628

    114  F    Isotropic =   218.2933   Anisotropy =   150.9913

    115  F    Isotropic =   243.3243   Anisotropy =   141.6185

    116  C    Isotropic =    48.7739   Anisotropy =    13.8665

    117  F    Isotropic =   223.4925   Anisotropy =   143.5350

    118  F    Isotropic =   244.6816   Anisotropy =   138.5477

    119  F    Isotropic =   247.4027   Anisotropy =   138.6067

    120  C    Isotropic =    49.0232   Anisotropy =    13.9794

    121  F    Isotropic =   245.5704   Anisotropy =   136.0628

    122  F    Isotropic =   249.7842   Anisotropy =   136.6474

    123  F    Isotropic =   218.0028   Anisotropy =   143.8275

    124  C    Isotropic =    49.3504   Anisotropy =    16.9214

    125  F    Isotropic =   254.8039   Anisotropy =   126.5595

    126  F    Isotropic =   222.6771   Anisotropy =   137.2580

    127  F    Isotropic =   230.3469   Anisotropy =   151.1232

    128  H    Isotropic =    23.6882   Anisotropy =     5.0313

    129  H    Isotropic =    23.6951   Anisotropy =     7.2983

    130  H    Isotropic =    30.0302   Anisotropy =    18.2810

    131  H    Isotropic =    27.4475   Anisotropy =     4.0650

 1\1\GINC-NC264\SP\RPBE1PBE\Gen\C60H42F24Fe1N2P2\MACKK4\02-Dec-2021\0\\
 # PBE1PBE gen pseudo=read int=(grid=ultrafine) empiricaldispersion=GD3
 BJ nmr=giao\\M003_1_4 title\\0,1\Fe,0,0.0379182704,-1.5933840994,1.733
 3062322\P,0,1.795071294,-0.1194025772,-0.8208608953\P,0,-1.7666372965,
 0.288730295,-0.4346130448\C,0,1.5332063041,-1.4253257818,0.4157358408\
 C,0,0.6505141592,-2.5288247305,0.0651769103\C,0,0.6684244408,-3.475178
 2141,1.1379753774\C,0,1.5242379186,-2.9656694347,2.1600058883\C,0,2.09
 42928405,-1.7157503073,1.7312059051\C,0,-1.5221744164,-0.4267170274,1.

 Normal termination of Gaussian 09 at Thu Dec  2 09:51:57 2021.
 Gaussian 09:  ES64L-G09RevE.01 30-Nov-2015

 ----------------------------------------------------------------------
 # PBE1PBE gen pseudo=read int=(grid=ultrafine) empiricaldispersion=GD3
 BJ pop=nbo guess=read geom=check
 ----------------------------------------------------------------------

 --------------
 M003_1_4 title
 --------------
 Structure from the checkpoint file:  "M003_1_4_SPE_NoPd.chk"
 Charge =  0 Multiplicity = 1

                         Standard orientation:
 ---------------------------------------------------------------------
 Center     Atomic      Atomic             Coordinates (Angstroms)
 Number     Number       Type             X           Y           Z
 ---------------------------------------------------------------------
      1         26           0       -0.106603   -1.017862    1.776814
      2         15           0        1.818759   -0.376010   -0.991757
      3         15           0       -1.751209    0.129644   -0.957623
      4          6           0        1.463769   -1.252028    0.560582
      5          6           0        0.582686   -2.409703    0.503772
      6          6           0        0.522725   -2.991689    1.809336
      7          6           0        1.328227   -2.199861    2.681539
      8          6           0        1.944050   -1.135623    1.933683
      9          6           0       -1.614761   -0.053206    0.861763
     10          6           0       -2.161198   -1.000573    1.832991
     11          6           0       -1.624405   -0.630054    3.117579
     12          6           0       -0.800776    0.523575    2.978897
     13          6           0       -0.772210    0.878628    1.595795
     14          6           0        3.324950   -1.257387   -1.578098
     15          6           0        3.577528   -2.563468   -1.134185
     16          6           0        4.742246   -3.232799   -1.537655
     17          6           0        5.655666   -2.614938   -2.397492
     18          6           0        5.390370   -1.317957   -2.859431
     19          6           0        4.232258   -0.639039   -2.461200
     20          6           0        2.429075    1.327067   -0.633390
     21          6           0        3.767940    1.609205   -0.302577
     22          6           0        4.154685    2.919529    0.008754
     23          6           0        3.217469    3.963005    0.004621
     24          6           0        1.890981    3.685030   -0.343310
     25          6           0        1.504737    2.380302   -0.685557
     26          6           0       -2.384907    1.864589   -1.026436
     27          6           0       -3.166129    2.347644    0.037664
     28          6           0       -3.633371    3.667888    0.028914
     29          6           0       -3.313730    4.523927   -1.031122
     30          6           0       -2.533049    4.041106   -2.090219
     31          6           0       -2.070476    2.718474   -2.098662
     32          6           0       -3.156158   -0.932976   -1.484204
     33          6           0       -4.490209   -0.528157   -1.352595
     34          6           0       -5.522972   -1.391804   -1.749541
     35          6           0       -5.233315   -2.650422   -2.288235
     36          6           0       -3.894258   -3.037847   -2.446063
     37          6           0       -2.858567   -2.184083   -2.051543
     38          1           0        0.041472   -2.744480   -0.382880
     39          1           0       -0.222034    1.716701    1.170303
     40          1           0        2.879292   -3.066880   -0.461663
     41          1           0        6.567747   -3.133414   -2.701810
     42          1           0        4.045091    0.370069   -2.831857
     43          1           0        4.519123    0.815256   -0.292691
     44          1           0        3.520306    4.979492    0.265800
     45          1           0        0.477466    2.181072   -1.006209
     46          1           0       -3.405861    1.702526    0.885892
     47          1           0       -3.661858    5.559995   -1.028837
     48          1           0       -1.477205    2.346292   -2.939138
     49          1           0       -4.737645    0.461724   -0.959906
     50          1           0       -6.040933   -3.310706   -2.611673
     51          1           0       -1.816059   -2.465326   -2.229568
     52          6           0        3.013046   -0.212923    2.499355
     53          1           0       -0.234477    1.006548    3.772396
     54          1           0       -1.814952   -1.174486    4.041126
     55          6           0       -3.253981   -2.051342    1.687613
     56          1           0        3.400985    0.399721    1.657809
     57          7           0        4.110509   -1.018132    3.083500
     58          6           0        4.642017   -1.991328    2.127296
     59          6           0        5.199126   -0.137741    3.525781
     60          1           0        5.461029   -2.553095    2.605232
     61          1           0        3.865575   -2.712808    1.833997
     62          1           0        5.049231   -1.518791    1.201301
     63          1           0        6.006735   -0.756714    3.949777
     64          1           0        5.624913    0.472915    2.695794
     65          1           0        4.841214    0.550824    4.306032
     66          6           0        1.326540    2.574750    5.374682
     67          6           0        1.633050    1.261337    5.767715
     68          6           0        2.193602    0.361471    4.851024
     69          6           0        2.451124    0.762377    3.527697
     70          6           0        2.165943    2.084402    3.149171
     71          6           0        1.600436    2.985871    4.061886
     72          1           0        0.885178    3.275006    6.090968
     73          1           0        1.437539    0.938006    6.795544
     74          1           0        2.462312   -0.654175    5.158409
     75          1           0        2.379447    2.408466    2.126669
     76          1           0        1.376106    4.010067    3.745734
     77          7           0       -4.374550   -1.704408    2.600924
     78          1           0       -3.595835   -2.053285    0.633126
     79          6           0       -5.495702   -2.631871    2.400476
     80          6           0       -4.859759   -0.332830    2.416939
     81          1           0       -5.933664   -2.562957    1.378784
     82          1           0       -5.167708   -3.667772    2.574301
     83          1           0       -6.289198   -2.391354    3.127817
     84          1           0       -5.286503   -0.147916    1.404876
     85          1           0       -5.660541   -0.143513    3.151486
     86          1           0       -4.054336    0.392949    2.608214
     87          6           0       -1.724034   -6.037897    2.507066
     88          6           0       -2.019460   -5.168435    3.570572
     89          6           0       -2.532696   -3.889212    3.317399
     90          6           0       -2.746105   -3.457002    1.995585
     91          6           0       -2.476946   -4.342807    0.940569
     92          6           0       -1.965925   -5.624513    1.188947
     93          1           0       -1.323827   -7.036876    2.707821
     94          1           0       -2.802364   -3.224467    4.143766
     95          1           0       -2.681826   -4.033340   -0.086997
     96          6           0       -4.408900    4.170409    1.222198
     97          9           0       -3.570980    4.595639    2.208500
     98          9           0       -5.217975    5.211185    0.899405
     99          9           0       -5.185346    3.185654    1.757701
    100          6           0       -2.220879    4.957077   -3.252765
    101          9           0       -3.262675    5.007196   -4.125957
    102          9           0       -1.995588    6.230214   -2.823235
    103          9           0       -1.126791    4.548114   -3.939064
    104          6           0       -6.952497   -0.954907   -1.539940
    105          9           0       -7.129212    0.346923   -1.883763
    106          9           0       -7.827579   -1.703869   -2.255133
    107          9           0       -7.306535   -1.065366   -0.221685
    108          6           0       -3.557127   -4.394748   -3.018902
    109          9           0       -3.403116   -5.323281   -2.021529
    110          9           0       -4.537008   -4.853456   -3.836749
    111          9           0       -2.395988   -4.369675   -3.716479
    112          6           0        5.040396   -4.584571   -0.939795
    113          9           0        5.943384   -5.282021   -1.673130
    114          9           0        5.557029   -4.453759    0.320970
    115          9           0        3.915669   -5.340451   -0.825246
    116          6           0        6.334295   -0.657905   -3.837695
    117          9           0        5.961586   -0.894049   -5.120980
    118          9           0        6.362999    0.691106   -3.662726
    119          9           0        7.605863   -1.122209   -3.690994
    120          6           0        5.571308    3.175090    0.466582
    121          9           0        6.452969    2.349591   -0.153169
    122          9           0        5.953778    4.455771    0.236678
    123          9           0        5.686119    2.951671    1.809557
    124          6           0        0.841867    4.771167   -0.363413
    125          9           0        1.283225    5.918888    0.207847
    126          9           0        0.447954    5.058608   -1.630278
    127          9           0       -0.271746    4.368748    0.321890
    128          1           0       -1.856593   -5.492948    4.603842
    129          1           0       -1.770499   -6.298895    0.348865
    130          1           0       -0.091904   -3.840820    2.101042
    131          1           0        1.445784   -2.347113    3.754679
 ---------------------------------------------------------------------

 SCF Done:  E(RPBE1PBE) =  -5620.86886152     A.U. after    9 cycles

 The electronic state is 1-A.
 Alpha  occ. eigenvalues --  -77.24020 -77.23748 -24.82745 -24.82743 -24.82645
 Alpha  occ. eigenvalues --  -24.82563 -24.82364 -24.82334 -24.82310 -24.82303
 Alpha  occ. eigenvalues --  -24.82253 -24.82127 -24.81915 -24.81909 -24.81852
 Alpha  occ. eigenvalues --  -24.81778 -24.81764 -24.81698 -24.81495 -24.81489
 Alpha  occ. eigenvalues --  -24.81413 -24.81390 -24.81383 -24.81371 -24.81283
 Alpha  occ. eigenvalues --  -24.81068 -14.39577 -14.39495 -10.50297 -10.50224
 Alpha  occ. eigenvalues --  -10.50051 -10.49875 -10.49449 -10.49299 -10.49130
 Alpha  occ. eigenvalues --  -10.49089 -10.29901 -10.29778 -10.29745 -10.29606
 Alpha  occ. eigenvalues --  -10.29244 -10.29131 -10.29055 -10.29051 -10.29045
 Alpha  occ. eigenvalues --  -10.28980 -10.28957 -10.28800 -10.28793 -10.28765
 Alpha  occ. eigenvalues --  -10.28585 -10.28464 -10.28452 -10.28370 -10.28283
 Alpha  occ. eigenvalues --  -10.28127 -10.28039 -10.27984 -10.27944 -10.27694
 Alpha  occ. eigenvalues --  -10.27642 -10.27271 -10.27158 -10.26996 -10.26914
 Alpha  occ. eigenvalues --  -10.26800 -10.25975 -10.25650 -10.25328 -10.25267
 Alpha  occ. eigenvalues --  -10.25214 -10.25212 -10.25125 -10.25045 -10.24683
 Alpha  occ. eigenvalues --  -10.24511 -10.24497 -10.24471 -10.24422 -10.24369
 Alpha  occ. eigenvalues --  -10.24344 -10.24341 -10.24298 -10.24216 -10.24206
 Alpha  occ. eigenvalues --  -10.24109 -10.24092 -10.24078  -6.63579  -6.63305
 Alpha  occ. eigenvalues --   -4.77184  -4.77156  -4.76923  -4.76877  -4.76703
 Alpha  occ. eigenvalues --   -4.76436  -3.62392  -2.26953  -2.22676  -2.22666
 Alpha  occ. eigenvalues --   -1.36156  -1.36116  -1.35890  -1.35756  -1.35306
 Alpha  occ. eigenvalues --   -1.35233  -1.35049  -1.35020  -1.28025  -1.27878
 Alpha  occ. eigenvalues --   -1.27735  -1.27577  -1.27440  -1.27276  -1.27070
 Alpha  occ. eigenvalues --   -1.27053  -1.26981  -1.26975  -1.26868  -1.26649
 Alpha  occ. eigenvalues --   -1.26607  -1.26505  -1.26498  -1.26217  -0.96608
 Alpha  occ. eigenvalues --   -0.96450  -0.94629  -0.94516  -0.93811  -0.93478
 Alpha  occ. eigenvalues --   -0.93183  -0.91707  -0.89199  -0.89162  -0.86119
 Alpha  occ. eigenvalues --   -0.85997  -0.85283  -0.84905  -0.84865  -0.84648
 Alpha  occ. eigenvalues --   -0.82917  -0.82486  -0.81214  -0.81167  -0.77989
 Alpha  occ. eigenvalues --   -0.77968  -0.76817  -0.76648  -0.76607  -0.76453
 Alpha  occ. eigenvalues --   -0.76120  -0.76085  -0.75336  -0.75299  -0.75210
 Alpha  occ. eigenvalues --   -0.75005  -0.74474  -0.74128  -0.72661  -0.72476
 Alpha  occ. eigenvalues --   -0.71118  -0.71078  -0.70287  -0.70115  -0.68446
 Alpha  occ. eigenvalues --   -0.68339  -0.67855  -0.67664  -0.67571  -0.67199
 Alpha  occ. eigenvalues --   -0.65841  -0.65624  -0.64458  -0.64399  -0.63484
 Alpha  occ. eigenvalues --   -0.63329  -0.63281  -0.63217  -0.63178  -0.63125
 Alpha  occ. eigenvalues --   -0.63043  -0.63000  -0.62756  -0.62650  -0.62573
 Alpha  occ. eigenvalues --   -0.62451  -0.62320  -0.62250  -0.62201  -0.62061
 Alpha  occ. eigenvalues --   -0.62040  -0.61923  -0.61510  -0.61282  -0.60857
 Alpha  occ. eigenvalues --   -0.60726  -0.59336  -0.59181  -0.58186  -0.58106
 Alpha  occ. eigenvalues --   -0.57424  -0.57282  -0.56720  -0.56282  -0.55791
 Alpha  occ. eigenvalues --   -0.55704  -0.55642  -0.55107  -0.54999  -0.54590
 Alpha  occ. eigenvalues --   -0.53619  -0.53325  -0.53145  -0.53069  -0.52981
 Alpha  occ. eigenvalues --   -0.52514  -0.52057  -0.51626  -0.50987  -0.50923
 Alpha  occ. eigenvalues --   -0.50797  -0.50744  -0.50707  -0.50603  -0.50469
 Alpha  occ. eigenvalues --   -0.50333  -0.50320  -0.50240  -0.50134  -0.49920
 Alpha  occ. eigenvalues --   -0.49907  -0.49839  -0.49703  -0.49660  -0.49586
 Alpha  occ. eigenvalues --   -0.49517  -0.49416  -0.49326  -0.48050  -0.47790
 Alpha  occ. eigenvalues --   -0.47714  -0.47622  -0.47412  -0.47236  -0.47126
 Alpha  occ. eigenvalues --   -0.47029  -0.46932  -0.46813  -0.46782  -0.46692
 Alpha  occ. eigenvalues --   -0.46677  -0.46639  -0.46586  -0.46569  -0.46415
 Alpha  occ. eigenvalues --   -0.46403  -0.46328  -0.46134  -0.46125  -0.45961
 Alpha  occ. eigenvalues --   -0.45818  -0.45627  -0.45494  -0.45383  -0.45319
 Alpha  occ. eigenvalues --   -0.45259  -0.45207  -0.45032  -0.44996  -0.44898
 Alpha  occ. eigenvalues --   -0.44814  -0.44709  -0.44645  -0.44503  -0.44457
 Alpha  occ. eigenvalues --   -0.44379  -0.44231  -0.44189  -0.44110  -0.44052
 Alpha  occ. eigenvalues --   -0.43978  -0.43915  -0.43789  -0.43542  -0.43175
 Alpha  occ. eigenvalues --   -0.42997  -0.42750  -0.42512  -0.42306  -0.42148
 Alpha  occ. eigenvalues --   -0.41978  -0.41704  -0.41582  -0.40971  -0.40726
 Alpha  occ. eigenvalues --   -0.40543  -0.40397  -0.40242  -0.40124  -0.39841
 Alpha  occ. eigenvalues --   -0.39559  -0.39358  -0.38976  -0.38934  -0.38788
 Alpha  occ. eigenvalues --   -0.38658  -0.38338  -0.38119  -0.37678  -0.37594
 Alpha  occ. eigenvalues --   -0.37174  -0.36748  -0.36412  -0.36242  -0.36142
 Alpha  occ. eigenvalues --   -0.35820  -0.33448  -0.32474  -0.32397  -0.32363
 Alpha  occ. eigenvalues --   -0.32199  -0.31909  -0.31595  -0.31113  -0.30925
 Alpha  occ. eigenvalues --   -0.29932  -0.29558  -0.29086  -0.28031  -0.27983
 Alpha  occ. eigenvalues --   -0.27428  -0.27189  -0.26178  -0.25918  -0.24595
 Alpha  occ. eigenvalues --   -0.24498  -0.24455  -0.24261  -0.23131
 Alpha virt. eigenvalues --   -0.08154  -0.08091  -0.08010  -0.07610  -0.06776
 Alpha virt. eigenvalues --   -0.06572  -0.06172  -0.05771  -0.03033  -0.02744
 Alpha virt. eigenvalues --   -0.02703  -0.02503  -0.01944  -0.01824  -0.00718

 Mulliken charges:
               1
     1  Fe  -1.175589
     2  P    0.045102
     3  P   -0.013716
     4  C    0.401391
     5  C   -0.328431
     6  C    0.022179
     7  C   -0.091228
     8  C    0.248945
     9  C    0.452309
    10  C    0.349708
    11  C   -0.066523
    12  C   -0.018772
    13  C   -0.236706
    14  C    0.232453
    15  C   -0.340541
    16  C    0.150908
    17  C   -0.321829
    18  C    0.182849
    19  C   -0.420331
    20  C    0.036604
    21  C   -0.228732
    22  C    0.179053
    23  C   -0.257878
    24  C    0.053877
    25  C   -0.263589
    26  C    0.128154
    27  C   -0.217121
    28  C    0.098100
    29  C   -0.295789
    30  C    0.155255
    31  C   -0.298033
    32  C    0.147915
    33  C   -0.257949
    34  C    0.115422
    35  C   -0.264095
    36  C    0.191070
    37  C   -0.397178
    38  H    0.102922
    39  H    0.159603
    40  H    0.207280
    41  H    0.166828
    42  H    0.163731
    43  H    0.199361
    44  H    0.168928
    45  H    0.207210
    46  H    0.145824
    47  H    0.163879
    48  H    0.156558
    49  H    0.182401
    50  H    0.173600
    51  H    0.171697
    52  C    0.147342
    53  H    0.141860
    54  H    0.102374
    55  C   -0.033633
    56  H   -0.119697
    57  N   -0.080538
    58  C   -0.331687
    59  C   -0.316350
    60  H    0.139117
    61  H    0.137189
    62  H    0.097196
    63  H    0.130179
    64  H    0.105437
    65  H    0.152735
    66  C   -0.121003
    67  C   -0.125828
    68  C   -0.187482
    69  C   -0.053240
    70  C   -0.113450
    71  C   -0.159693
    72  H    0.121962
    73  H    0.120218
    74  H    0.136479
    75  H    0.071551
    76  H    0.118163
    77  N   -0.072809
    78  H    0.015138
    79  C   -0.327890
    80  C   -0.337677
    81  H    0.106758
    82  H    0.154162
    83  H    0.129049
    84  H    0.088560
    85  H    0.134926
    86  H    0.159906
    87  C   -0.116364
    88  C   -0.130596
    89  C   -0.173383
    90  C   -0.027112
    91  C   -0.160207
    92  C   -0.147688
    93  H    0.122274
    94  H    0.136017
    95  H    0.080545
    96  C    0.428280
    97  F   -0.156527
    98  F   -0.159344
    99  F   -0.162273
   100  C    0.464384
   101  F   -0.156616
   102  F   -0.167393
   103  F   -0.164011
   104  C    0.437877
   105  F   -0.156817
   106  F   -0.156704
   107  F   -0.154691
   108  C    0.447502
   109  F   -0.155247
   110  F   -0.156106
   111  F   -0.157379
   112  C    0.435554
   113  F   -0.159209
   114  F   -0.158388
   115  F   -0.162790
   116  C    0.439310
   117  F   -0.154652
   118  F   -0.163628
   119  F   -0.162902
   120  C    0.435070
   121  F   -0.160582
   122  F   -0.157546
   123  F   -0.155510
   124  C    0.448340
   125  F   -0.157920
   126  F   -0.154068
   127  F   -0.168568
   128  H    0.120116
   129  H    0.123826
   130  H    0.148486
   131  H    0.110230
 Sum of Mulliken charges =  -0.00000

 Dipole moment (field-independent basis, Debye):
    X=             -1.2574    Y=             -1.6248    Z=              3.3484  Tot=              3.9285
 Quadrupole moment (field-independent basis, Debye-Ang):
   XX=           -560.4242   YY=           -540.7492   ZZ=           -525.0071
   XY=              9.9992   XZ=              6.4508   YZ=             -2.4807

 Summary of Natural Population Analysis:

                                       Natural Population
                Natural  -----------------------------------------------
    Atom  No    Charge         Core      Valence    Rydberg      Total
 -----------------------------------------------------------------------
     Fe    1   -0.28448     17.99027     8.24791    0.04629    26.28448
      P    2    0.89101      9.99764     4.08262    0.02873    14.10899
      P    3    0.86682      9.99770     4.10577    0.02971    14.13318
      C    4   -0.34897      1.99838     4.31177    0.03882     6.34897
      C    5   -0.21348      1.99864     4.19085    0.02399     6.21348
      C    6   -0.18972      1.99880     4.16652    0.02440     6.18972
      C    7   -0.20248      1.99870     4.18063    0.02314     6.20248
      C    8    0.01730      1.99861     3.94714    0.03694     5.98270
      C    9   -0.33710      1.99841     4.29974    0.03895     6.33710
      C   10    0.00986      1.99861     3.95437    0.03716     5.99014
      C   11   -0.20521      1.99870     4.18329    0.02323     6.20521
      C   12   -0.18724      1.99880     4.16413    0.02431     6.18724
      C   13   -0.21507      1.99864     4.19129    0.02514     6.21507
      C   14   -0.31576      1.99905     4.28639    0.03032     6.31576
      C   15   -0.16960      1.99903     4.15129    0.01928     6.16960
      C   16   -0.14328      1.99897     4.11935    0.02497     6.14328
      C   17   -0.16437      1.99906     4.14846    0.01684     6.16437
      C   18   -0.14187      1.99898     4.11877    0.02413     6.14187
      C   19   -0.17817      1.99905     4.16113    0.01798     6.17817
      C   20   -0.31900      1.99900     4.29097    0.02902     6.31900
      C   21   -0.17093      1.99903     4.15227    0.01963     6.17093
      C   22   -0.15069      1.99896     4.12686    0.02487     6.15069
      C   23   -0.15151      1.99906     4.13635    0.01609     6.15151
      C   24   -0.15213      1.99896     4.12960    0.02357     6.15213
      C   25   -0.16650      1.99903     4.14764    0.01983     6.16650
      C   26   -0.32589      1.99905     4.29552    0.03133     6.32589
      C   27   -0.16799      1.99902     4.14909    0.01988     6.16799
      C   28   -0.14698      1.99896     4.12269    0.02532     6.14698
      C   29   -0.14031      1.99906     4.12506    0.01618     6.14031
      C   30   -0.13761      1.99898     4.11404    0.02459     6.13761
      C   31   -0.16628      1.99905     4.14908    0.01815     6.16628
      C   32   -0.32423      1.99904     4.29398    0.03120     6.32423
      C   33   -0.15910      1.99900     4.14045    0.01965     6.15910
      C   34   -0.14517      1.99897     4.12075    0.02545     6.14517
      C   35   -0.14861      1.99907     4.13289    0.01665     6.14861
      C   36   -0.14910      1.99897     4.12563    0.02451     6.14910
      C   37   -0.16232      1.99904     4.14522    0.01806     6.16232
      H   38    0.25173      0.00000     0.74595    0.00232     0.74827
      H   39    0.25731      0.00000     0.74062    0.00207     0.74269
      H   40    0.25086      0.00000     0.74680    0.00234     0.74914
      H   41    0.25475      0.00000     0.74393    0.00132     0.74525
      H   42    0.24224      0.00000     0.75633    0.00144     0.75776
      H   43    0.25394      0.00000     0.74301    0.00306     0.74606
      H   44    0.25937      0.00000     0.73924    0.00139     0.74063
      H   45    0.24842      0.00000     0.74947    0.00211     0.75158
      H   46    0.25147      0.00000     0.74576    0.00277     0.74853
      H   47    0.25514      0.00000     0.74352    0.00134     0.74486
      H   48    0.24882      0.00000     0.74977    0.00141     0.75118
      H   49    0.24760      0.00000     0.75021    0.00219     0.75240
      H   50    0.25862      0.00000     0.74006    0.00133     0.74138
      H   51    0.24983      0.00000     0.74879    0.00138     0.75017
      C   52   -0.10820      1.99908     4.08433    0.02479     6.10820
      H   53    0.27077      0.00000     0.72690    0.00233     0.72923
      H   54    0.25655      0.00000     0.74181    0.00164     0.74345
      C   55   -0.10923      1.99908     4.08461    0.02554     6.10923
      H   56    0.20265      0.00000     0.79297    0.00438     0.79735
      N   57   -0.41008      1.99955     5.38376    0.02676     7.41008
      C   58   -0.42782      1.99941     4.41474    0.01368     6.42782
      C   59   -0.43084      1.99940     4.42137    0.01007     6.43084
      H   60    0.21309      0.00000     0.78559    0.00131     0.78691
      H   61    0.21325      0.00000     0.78495    0.00180     0.78675
      H   62    0.16439      0.00000     0.83199    0.00361     0.83561
      H   63    0.20683      0.00000     0.79170    0.00147     0.79317
      H   64    0.17503      0.00000     0.82223    0.00275     0.82497
      H   65    0.21673      0.00000     0.78191    0.00136     0.78327
      C   66   -0.22656      1.99922     4.20930    0.01804     6.22656
      C   67   -0.21313      1.99922     4.19628    0.01762     6.21313
      C   68   -0.22675      1.99906     4.20908    0.01861     6.22675
      C   69   -0.00284      1.99907     3.98161    0.02217     6.00284
      C   70   -0.22441      1.99907     4.20665    0.01869     6.22441
      C   71   -0.21239      1.99921     4.19515    0.01803     6.21239
      H   72    0.22353      0.00000     0.77531    0.00116     0.77647
      H   73    0.22182      0.00000     0.77700    0.00118     0.77818
      H   74    0.23191      0.00000     0.76617    0.00192     0.76809
      H   75    0.21710      0.00000     0.78061    0.00228     0.78290
      H   76    0.22340      0.00000     0.77531    0.00130     0.77660
      N   77   -0.41270      1.99956     5.38625    0.02689     7.41270
      H   78    0.20297      0.00000     0.79217    0.00485     0.79703
      C   79   -0.43146      1.99940     4.42191    0.01015     6.43146
      C   80   -0.42682      1.99940     4.41689    0.01053     6.42682
      H   81    0.17536      0.00000     0.82190    0.00275     0.82464
      H   82    0.21594      0.00000     0.78274    0.00132     0.78406
      H   83    0.20683      0.00000     0.79170    0.00147     0.79317
      H   84    0.16800      0.00000     0.82896    0.00304     0.83200
      H   85    0.21242      0.00000     0.78603    0.00155     0.78758
      H   86    0.20854      0.00000     0.78920    0.00226     0.79146
      C   87   -0.22667      1.99922     4.20953    0.01792     6.22667
      C   88   -0.21301      1.99922     4.19618    0.01762     6.21301
      C   89   -0.22639      1.99906     4.20865    0.01869     6.22639
      C   90   -0.00390      1.99906     3.98294    0.02189     6.00390
      C   91   -0.22789      1.99908     4.21006    0.01875     6.22789
      C   92   -0.21005      1.99921     4.19332    0.01752     6.21005
      H   93    0.22326      0.00000     0.77557    0.00117     0.77674
      H   94    0.23090      0.00000     0.76720    0.00190     0.76910
      H   95    0.21933      0.00000     0.77872    0.00194     0.78067
      C   96    0.95034      1.99912     3.00337    0.04718     5.04966
      F   97   -0.30890      1.99992     7.30068    0.00829     9.30890
      F   98   -0.30829      1.99992     7.29986    0.00850     9.30829
      F   99   -0.31330      1.99993     7.30509    0.00829     9.31330
      C  100    0.94984      1.99913     3.00340    0.04763     5.05016
      F  101   -0.30937      1.99992     7.30112    0.00832     9.30937
      F  102   -0.31092      1.99993     7.30254    0.00845     9.31092
      F  103   -0.30765      1.99992     7.29900    0.00872     9.30765
      C  104    0.94954      1.99912     3.00405    0.04730     5.05046
      F  105   -0.30685      1.99992     7.29859    0.00833     9.30685
      F  106   -0.30656      1.99992     7.29806    0.00858     9.30656
      F  107   -0.31536      1.99993     7.30674    0.00870     9.31536
      C  108    0.94973      1.99912     3.00366    0.04749     5.05027
      F  109   -0.31699      1.99993     7.30858    0.00848     9.31699
      F  110   -0.30597      1.99992     7.29743    0.00861     9.30597
      F  111   -0.30593      1.99992     7.29739    0.00862     9.30593
      C  112    0.95062      1.99911     3.00319    0.04708     5.04938
      F  113   -0.30828      1.99992     7.29984    0.00851     9.30828
      F  114   -0.31582      1.99993     7.30754    0.00835     9.31582
      F  115   -0.31047      1.99992     7.30229    0.00826     9.31047
      C  116    0.94951      1.99913     3.00366    0.04770     5.05049
      F  117   -0.30753      1.99992     7.29918    0.00843     9.30753
      F  118   -0.31211      1.99992     7.30367    0.00852     9.31211
      F  119   -0.31171      1.99993     7.30329    0.00849     9.31171
      C  120    0.94953      1.99912     3.00381    0.04755     5.05047
      F  121   -0.30706      1.99992     7.29854    0.00859     9.30706
      F  122   -0.30676      1.99992     7.29827    0.00857     9.30676
      F  123   -0.31282      1.99993     7.30406    0.00884     9.31282
      C  124    0.95066      1.99911     3.00154    0.04869     5.04934
      F  125   -0.30637      1.99992     7.29816    0.00828     9.30637
      F  126   -0.30656      1.99992     7.29819    0.00845     9.30656
      F  127   -0.31735      1.99993     7.30877    0.00866     9.31735
      H  128    0.22165      0.00000     0.77715    0.00119     0.77835
      H  129    0.22592      0.00000     0.77284    0.00124     0.77408
      H  130    0.27128      0.00000     0.72641    0.00231     0.72872
      H  131    0.25688      0.00000     0.74151    0.00161     0.74312
 =======================================================================
   * Total *   -0.00000    209.92403   476.09572    1.98026   688.00000

 1\1\GINC-NC264\SP\RPBE1PBE\Gen\C60H42F24Fe1N2P2\MACKK4\02-Dec-2021\0\\
 # PBE1PBE gen pseudo=read int=(grid=ultrafine) empiricaldispersion=GD3
 BJ pop=nbo guess=read geom=check\\M003_1_4 title\\0,1\Fe,0,0.037918270
 4,-1.5933840994,1.7333062322\P,0,1.795071294,-0.1194025772,-0.82086089
 53\P,0,-1.7666372965,0.288730295,-0.4346130448\C,0,1.5332063041,-1.425
 3257818,0.4157358408\C,0,0.6505141592,-2.5288247305,0.0651769103\C,0,0
 .6684244408,-3.4751782141,1.1379753774\C,0,1.5242379186,-2.9656694347,
 2.1600058883\C,0,2.0942928405,-1.7157503073,1.7312059051\C,0,-1.522174

 Normal termination of Gaussian 09 at Thu Dec  2 11:47:37 2021.
