 Gaussian 09, Revision E.01,

 ----------------------------------------------------------------------
 # PBE1PBE/def2TZVP int=(grid=ultrafine) empiricaldispersion=GD3BJ nmr=
 giao
 ----------------------------------------------------------------------

 ----------------
 XantPhos_1 title
 ----------------
 Symbolic Z-matrix:
 Charge =  0 Multiplicity = 1

 SCF Done:  E(RPBE1PBE) =  -2261.88737685     A.U. after   15 cycles

      1  P    Isotropic =   296.9538   Anisotropy =    53.0288

      2  C    Isotropic =    48.4826   Anisotropy =   162.7068

      3  C    Isotropic =    47.8389   Anisotropy =   188.9040

      4  C    Isotropic =    55.0350   Anisotropy =   176.9674

      5  C    Isotropic =    55.6871   Anisotropy =   176.6689

      6  C    Isotropic =    43.9480   Anisotropy =   167.0839

      7  C    Isotropic =    20.7795   Anisotropy =   129.0836

      8  O    Isotropic =   140.9172   Anisotropy =   191.6595

      9  C    Isotropic =   142.5382   Anisotropy =     8.3190

     10  C    Isotropic =   162.5724   Anisotropy =    30.1839

     11  C    Isotropic =   153.6335   Anisotropy =    44.4428

     12  C    Isotropic =    32.3751   Anisotropy =   203.1614

     13  C    Isotropic =    51.4847   Anisotropy =   194.3966

     14  C    Isotropic =    55.2137   Anisotropy =   183.1109

     15  C    Isotropic =    55.2932   Anisotropy =   185.1191

     16  C    Isotropic =    52.8192   Anisotropy =   192.7042

     17  C    Isotropic =    46.5866   Anisotropy =   201.6080

     18  C    Isotropic =    37.4085   Anisotropy =   206.8186

     19  C    Isotropic =    36.2838   Anisotropy =   197.0767

     20  C    Isotropic =    50.4530   Anisotropy =   190.0964

     21  C    Isotropic =    51.5795   Anisotropy =   184.9392

     22  C    Isotropic =    52.4907   Anisotropy =   184.5388

     23  C    Isotropic =    41.6044   Anisotropy =   183.5623

     24  H    Isotropic =    23.7169   Anisotropy =    10.3806

     25  H    Isotropic =    23.7039   Anisotropy =     8.8863

     26  H    Isotropic =    23.9483   Anisotropy =     5.4250

     27  H    Isotropic =    29.8192   Anisotropy =     9.0052

     28  H    Isotropic =    29.2720   Anisotropy =     9.2362

     29  H    Isotropic =    29.2612   Anisotropy =     7.1042

     30  H    Isotropic =    30.0754   Anisotropy =    10.0363

     31  H    Isotropic =    24.0459   Anisotropy =    12.9950

     32  H    Isotropic =    23.7704   Anisotropy =     3.8426

     33  H    Isotropic =    23.6583   Anisotropy =     5.7197

     34  H    Isotropic =    22.8605   Anisotropy =     9.2803

     35  H    Isotropic =    26.0962   Anisotropy =     9.5221

     36  H    Isotropic =    25.1526   Anisotropy =     7.9165

     37  H    Isotropic =    24.8668   Anisotropy =     2.8906

     38  H    Isotropic =    25.3970   Anisotropy =     3.5984

     39  H    Isotropic =    25.6290   Anisotropy =    11.2425

     40  P    Isotropic =   321.2583   Anisotropy =    54.4847

     41  C    Isotropic =    48.4347   Anisotropy =   166.7789

     42  C    Isotropic =    39.5057   Anisotropy =   193.7520

     43  C    Isotropic =    57.4141   Anisotropy =   173.6679

     44  C    Isotropic =    55.2429   Anisotropy =   178.5706

     45  C    Isotropic =    45.3526   Anisotropy =   167.8908

     46  C    Isotropic =    19.1693   Anisotropy =   133.3683

     47  C    Isotropic =    41.5338   Anisotropy =   210.8128

     48  C    Isotropic =    46.9798   Anisotropy =   204.5701

     49  C    Isotropic =    48.7766   Anisotropy =   195.2817

     50  C    Isotropic =    52.8525   Anisotropy =   188.2123

     51  C    Isotropic =    52.6297   Anisotropy =   186.5958

     52  C    Isotropic =    46.0709   Anisotropy =   188.2132

     53  C    Isotropic =    30.8656   Anisotropy =   206.9888

     54  C    Isotropic =    48.1970   Anisotropy =   191.1173

     55  C    Isotropic =    54.6209   Anisotropy =   181.5492

     56  C    Isotropic =    52.4046   Anisotropy =   182.4638

     57  C    Isotropic =    52.5733   Anisotropy =   183.4418

     58  C    Isotropic =    48.0581   Anisotropy =   185.0612

     59  H    Isotropic =    24.3528   Anisotropy =     9.8641

     60  H    Isotropic =    23.7652   Anisotropy =     8.8529

     61  H    Isotropic =    24.2317   Anisotropy =     5.3197

     62  H    Isotropic =    29.2496   Anisotropy =     9.0491

     63  H    Isotropic =    30.1650   Anisotropy =     9.6382

     64  H    Isotropic =    25.0452   Anisotropy =    16.2471

     65  H    Isotropic =    23.8729   Anisotropy =    11.9565

     66  H    Isotropic =    24.7933   Anisotropy =     8.8426

     67  H    Isotropic =    24.2680   Anisotropy =     5.6703

     68  H    Isotropic =    24.0612   Anisotropy =     2.9528

     69  H    Isotropic =    23.9649   Anisotropy =     5.0256

     70  H    Isotropic =    23.4093   Anisotropy =     7.4946

     71  H    Isotropic =    24.0799   Anisotropy =     6.3603

     72  H    Isotropic =    24.2070   Anisotropy =     3.5144

     73  H    Isotropic =    24.2653   Anisotropy =     7.4212

     74  H    Isotropic =    24.0107   Anisotropy =     6.8788

 Normal termination of Gaussian 09 at Mon Dec  6 02:44:54 2021.
 Gaussian 09:  ES64L-G09RevE.01 30-Nov-2015

 ----------------------------------------------------------------------
 # PBE1PBE/def2TZVP int=(grid=ultrafine) empiricaldispersion=GD3BJ pop=
 nbo guess=read geom=check
 ----------------------------------------------------------------------

 ----------------
 XantPhos_1 title
 ----------------
 Structure from the checkpoint file:  "XantPhos_1_SPE_NoPd.chk"
 Charge =  0 Multiplicity = 1

                         Standard orientation:
 ---------------------------------------------------------------------
 Center     Atomic      Atomic             Coordinates (Angstroms)
 Number     Number       Type             X           Y           Z
 ---------------------------------------------------------------------
      1         15           0       -1.821290   -0.348245   -0.976133
      2          6           0       -2.266400    1.440964   -0.848054
      3          6           0       -3.538543    1.982686   -0.598961
      4          6           0       -3.651743    3.301403   -0.131856
      5          6           0       -2.511769    4.074441    0.150016
      6          6           0       -1.226813    3.577668   -0.125829
      7          6           0       -1.165895    2.297643   -0.691210
      8          8           0        0.064714    1.767684   -1.024897
      9          6           0        0.118122    4.272760    0.154621
     10          6           0       -0.022550    5.367972    1.222575
     11          6           0        0.628862    4.906317   -1.171200
     12          6           0       -1.606420   -0.756881    0.822950
     13          6           0       -1.317153    0.205160    1.808033
     14          6           0       -1.178010   -0.174852    3.151334
     15          6           0       -1.333263   -1.514387    3.526744
     16          6           0       -1.612634   -2.480903    2.548615
     17          6           0       -1.740394   -2.108539    1.207375
     18          6           0       -3.361506   -1.295740   -1.315920
     19          6           0       -4.427136   -1.236929   -0.390656
     20          6           0       -5.689702   -2.817850   -1.732630
     21          6           0       -5.590560   -1.984678   -0.608377
     22          6           0       -4.621352   -2.901887   -2.635486
     23          6           0       -3.459870   -2.143125   -2.434252
     24          1           0       -4.431880    1.368457   -0.741859
     25          1           0       -2.633799    5.068597    0.590075
     26          1           0       -4.644596    3.720788    0.057452
     27          1           0       -0.380279    4.958880    2.182542
     28          1           0       -0.729701    6.144528    0.888060
     29          1           0        0.730370    4.147054   -1.963134
     30          1           0       -0.082360    5.674696   -1.519369
     31          1           0       -4.336682   -0.626616    0.513567
     32          1           0       -6.597003   -3.408132   -1.898072
     33          1           0       -4.688253   -3.558570   -3.508746
     34          1           0       -2.636598   -2.183072   -3.151977
     35          1           0       -1.225216    1.261633    1.543501
     36          1           0       -0.960974    0.588615    3.905843
     37          1           0       -1.233802   -1.807820    4.576897
     38          1           0       -1.721434   -3.533087    2.828815
     39          1           0       -1.962363   -2.869589    0.453231
     40         15           0        1.703742   -0.730836   -0.794691
     41          6           0        1.922822    0.865840    0.131133
     42          6           0        2.981261    1.077385    1.039657
     43          6           0        3.079146    2.287419    1.738575
     44          6           0        2.153826    3.324897    1.523145
     45          6           0        1.125633    3.182521    0.580138
     46          6           0        1.053515    1.946376   -0.087999
     47          6           0        1.486109   -2.063603    0.449398
     48          6           0        1.753017   -1.933039    1.822058
     49          6           0        1.675143   -3.055601    2.658000
     50          6           0        1.339085   -4.310243    2.131057
     51          6           0        1.055021   -4.440705    0.763043
     52          6           0        1.118665   -3.321343   -0.075340
     53          6           0        3.446508   -0.978904   -1.339264
     54          6           0        4.236003   -2.039553   -0.862584
     55          6           0        6.138787   -1.191150   -2.115068
     56          6           0        5.580065   -2.142514   -1.253552
     57          6           0        5.349908   -0.133184   -2.594065
     58          6           0        4.008697   -0.027965   -2.215497
     59          1           0        3.728986    0.292160    1.190081
     60          1           0        2.259475    4.259496    2.082104
     61          1           0        3.895202    2.433241    2.452841
     62          1           0        0.943546    5.870891    1.392921
     63          1           0        1.613022    5.379252   -1.011515
     64          1           0        3.809315   -2.785404   -0.186623
     65          1           0        3.389036    0.780363   -2.613636
     66          1           0        2.002673   -0.955861    2.243958
     67          1           0        1.873470   -2.944920    3.729158
     68          1           0        1.287842   -5.184791    2.787858
     69          1           0        0.779532   -5.415225    0.346963
     70          1           0        0.890313   -3.410833   -1.144380
     71          1           0        5.776899    0.605623   -3.279673
     72          1           0        7.187187   -1.274756   -2.419537
     73          1           0        6.187912   -2.972806   -0.879282
     74          1           0       -6.415232   -1.925316    0.109484
 ---------------------------------------------------------------------

 SCF Done:  E(RPBE1PBE) =  -2261.88737685     A.U. after    2 cycles

 The electronic state is 1-A.
 Alpha  occ. eigenvalues --  -77.19960 -77.19617 -19.25041 -10.29383 -10.29298
 Alpha  occ. eigenvalues --  -10.26887 -10.24741 -10.24616 -10.24201 -10.24080
 Alpha  occ. eigenvalues --  -10.24049 -10.24014 -10.23864 -10.23710 -10.23701
 Alpha  occ. eigenvalues --  -10.23632 -10.23601 -10.23560 -10.23525 -10.23424
 Alpha  occ. eigenvalues --  -10.23383 -10.23364 -10.23285 -10.23274 -10.23160
 Alpha  occ. eigenvalues --  -10.23133 -10.23100 -10.23045 -10.22975 -10.22831
 Alpha  occ. eigenvalues --  -10.22656 -10.22566 -10.22505 -10.22472 -10.22425
 Alpha  occ. eigenvalues --  -10.22407 -10.22401 -10.22352 -10.22333 -10.22297
 Alpha  occ. eigenvalues --  -10.22247 -10.22176  -6.59490  -6.59174  -4.73100
 Alpha  occ. eigenvalues --   -4.73065  -4.72789  -4.72740  -4.72609  -4.72295
 Alpha  occ. eigenvalues --   -1.12098  -0.89363  -0.89095  -0.88111  -0.87801
 Alpha  occ. eigenvalues --   -0.87049  -0.86877  -0.84514  -0.79624  -0.78781
 Alpha  occ. eigenvalues --   -0.78211  -0.77010  -0.76883  -0.76589  -0.76263
 Alpha  occ. eigenvalues --   -0.76016  -0.75788  -0.75739  -0.75507  -0.74632
 Alpha  occ. eigenvalues --   -0.71574  -0.67466  -0.66599  -0.65329  -0.65140
 Alpha  occ. eigenvalues --   -0.62408  -0.62220  -0.61910  -0.61662  -0.61014
 Alpha  occ. eigenvalues --   -0.60908  -0.60823  -0.60419  -0.58066  -0.57336
 Alpha  occ. eigenvalues --   -0.56312  -0.55818  -0.52884  -0.52659  -0.51848
 Alpha  occ. eigenvalues --   -0.51241  -0.50643  -0.49665  -0.49045  -0.47819
 Alpha  occ. eigenvalues --   -0.47441  -0.46775  -0.46567  -0.46481  -0.46355
 Alpha  occ. eigenvalues --   -0.46278  -0.45765  -0.45674  -0.45480  -0.45322
 Alpha  occ. eigenvalues --   -0.45156  -0.43522  -0.43207  -0.42875  -0.42767
 Alpha  occ. eigenvalues --   -0.42651  -0.42500  -0.41968  -0.41545  -0.41213
 Alpha  occ. eigenvalues --   -0.40411  -0.40150  -0.39712  -0.39410  -0.38970
 Alpha  occ. eigenvalues --   -0.38504  -0.38395  -0.38239  -0.37953  -0.37580
 Alpha  occ. eigenvalues --   -0.36951  -0.36228  -0.35964  -0.35710  -0.35455
 Alpha  occ. eigenvalues --   -0.35292  -0.35126  -0.34795  -0.34567  -0.33440
 Alpha  occ. eigenvalues --   -0.33161  -0.32863  -0.32010  -0.29295  -0.27956
 Alpha  occ. eigenvalues --   -0.27461  -0.27163  -0.26988  -0.26622  -0.26370
 Alpha  occ. eigenvalues --   -0.25880  -0.25808  -0.25519  -0.25299  -0.24154
 Alpha  occ. eigenvalues --   -0.22117  -0.19759
 Alpha virt. eigenvalues --   -0.03590  -0.03019  -0.02305  -0.02095  -0.01772
 Alpha virt. eigenvalues --   -0.01674  -0.01194  -0.00742  -0.00489  -0.00121
 Alpha virt. eigenvalues --    0.00280   0.00512   0.03786   0.04647   0.05253

 Mulliken charges:
               1
     1  P    0.115144
     2  C   -0.095725
     3  C   -0.144503
     4  C   -0.150886
     5  C   -0.182204
     6  C   -0.002719
     7  C    0.122371
     8  O   -0.236139
     9  C    0.306160
    10  C   -0.446256
    11  C   -0.404712
    12  C   -0.066571
    13  C   -0.022736
    14  C   -0.256259
    15  C   -0.076279
    16  C   -0.139477
    17  C   -0.056551
    18  C    0.097450
    19  C   -0.210612
    20  C   -0.099585
    21  C   -0.146573
    22  C   -0.118518
    23  C   -0.216712
    24  H    0.153105
    25  H    0.117595
    26  H    0.115208
    27  H    0.150072
    28  H    0.133797
    29  H    0.151939
    30  H    0.126054
    31  H    0.177086
    32  H    0.120285
    33  H    0.119250
    34  H    0.131252
    35  H    0.128398
    36  H    0.107269
    37  H    0.107473
    38  H    0.105306
    39  H    0.124706
    40  P    0.073676
    41  C   -0.155565
    42  C   -0.171296
    43  C   -0.163453
    44  C   -0.173309
    45  C   -0.025432
    46  C    0.240034
    47  C    0.052568
    48  C   -0.087614
    49  C   -0.146629
    50  C   -0.126072
    51  C   -0.118954
    52  C   -0.175805
    53  C    0.087467
    54  C   -0.166129
    55  C   -0.108720
    56  C   -0.156851
    57  C   -0.122226
    58  C   -0.191122
    59  H    0.165680
    60  H    0.116800
    61  H    0.114734
    62  H    0.133119
    63  H    0.127532
    64  H    0.150332
    65  H    0.119537
    66  H    0.150976
    67  H    0.107710
    68  H    0.114573
    69  H    0.117038
    70  H    0.120368
    71  H    0.114322
    72  H    0.114508
    73  H    0.113376
    74  H    0.117923
 Sum of Mulliken charges =  -0.00000

 Dipole moment (field-independent basis, Debye):
    X=             -0.7731    Y=              0.9871    Z=              2.4329  Tot=              2.7370
 Quadrupole moment (field-independent basis, Debye-Ang):
   XX=           -244.9143   YY=           -231.0732   ZZ=           -252.9449
   XY=              4.8592   XZ=              3.3075   YZ=              2.8137

 Summary of Natural Population Analysis:

                                       Natural Population
                Natural  -----------------------------------------------
    Atom  No    Charge         Core      Valence    Rydberg      Total
 -----------------------------------------------------------------------
      P    1    0.84109      9.99787     4.13128    0.02976    14.15891
      C    2   -0.34338      1.99885     4.31414    0.03039     6.34338
      C    3   -0.19379      1.99912     4.17610    0.01857     6.19379
      C    4   -0.22003      1.99923     4.20335    0.01744     6.22003
      C    5   -0.20108      1.99913     4.18452    0.01743     6.20108
      C    6   -0.05983      1.99890     4.03993    0.02100     6.05983
      C    7    0.28443      1.99859     3.69359    0.02340     5.71557
      O    8   -0.45845      1.99972     6.43514    0.02359     8.45845
      C    9   -0.07417      1.99930     4.05659    0.01828     6.07417
      C   10   -0.61605      1.99943     4.60379    0.01282     6.61605
      C   11   -0.60146      1.99940     4.59034    0.01172     6.60146
      C   12   -0.30853      1.99901     4.27749    0.03203     6.30853
      C   13   -0.23170      1.99908     4.21256    0.02006     6.23170
      C   14   -0.21346      1.99920     4.19588    0.01838     6.21346
      C   15   -0.22058      1.99921     4.20326    0.01811     6.22058
      C   16   -0.20632      1.99920     4.18819    0.01893     6.20632
      C   17   -0.21304      1.99909     4.19335    0.02060     6.21304
      C   18   -0.33751      1.99905     4.30789    0.03057     6.33751
      C   19   -0.20215      1.99911     4.18325    0.01979     6.20215
      C   20   -0.20484      1.99922     4.18761    0.01801     6.20484
      C   21   -0.21769      1.99921     4.20014    0.01835     6.21769
      C   22   -0.21740      1.99921     4.19982    0.01836     6.21740
      C   23   -0.19650      1.99913     4.17803    0.01934     6.19650
      H   24    0.22933      0.00000     0.76899    0.00168     0.77067
      H   25    0.22059      0.00000     0.77801    0.00139     0.77941
      H   26    0.21983      0.00000     0.77899    0.00118     0.78017
      H   27    0.22343      0.00000     0.77556    0.00102     0.77657
      H   28    0.21765      0.00000     0.78127    0.00108     0.78235
      H   29    0.22666      0.00000     0.77242    0.00092     0.77334
      H   30    0.21458      0.00000     0.78439    0.00103     0.78542
      H   31    0.22871      0.00000     0.76897    0.00232     0.77129
      H   32    0.21846      0.00000     0.78037    0.00117     0.78154
      H   33    0.21906      0.00000     0.77972    0.00122     0.78094
      H   34    0.22853      0.00000     0.77001    0.00146     0.77147
      H   35    0.22444      0.00000     0.77338    0.00217     0.77556
      H   36    0.21637      0.00000     0.78238    0.00125     0.78363
      H   37    0.21542      0.00000     0.78338    0.00120     0.78458
      H   38    0.21815      0.00000     0.78035    0.00150     0.78185
      H   39    0.22650      0.00000     0.77136    0.00215     0.77350
      P   40    0.84578      9.99785     4.12743    0.02894    14.15422
      C   41   -0.34565      1.99887     4.31632    0.03046     6.34565
      C   42   -0.18916      1.99913     4.17113    0.01889     6.18916
      C   43   -0.23009      1.99923     4.21319    0.01767     6.23009
      C   44   -0.19278      1.99913     4.17622    0.01743     6.19278
      C   45   -0.06519      1.99892     4.04560    0.02067     6.06519
      C   46    0.29135      1.99861     3.68634    0.02370     5.70865
      C   47   -0.32212      1.99905     4.28911    0.03396     6.32212
      C   48   -0.20999      1.99907     4.19008    0.02085     6.20999
      C   49   -0.20523      1.99921     4.18690    0.01912     6.20523
      C   50   -0.21935      1.99921     4.20155    0.01858     6.21935
      C   51   -0.21807      1.99920     4.20042    0.01844     6.21807
      C   52   -0.21499      1.99911     4.19663    0.01926     6.21499
      C   53   -0.31300      1.99905     4.28312    0.03084     6.31300
      C   54   -0.22623      1.99910     4.20782    0.01930     6.22623
      C   55   -0.22370      1.99922     4.20593    0.01855     6.22370
      C   56   -0.20875      1.99921     4.19151    0.01803     6.20875
      C   57   -0.20879      1.99921     4.19171    0.01787     6.20879
      C   58   -0.21228      1.99911     4.19395    0.01922     6.21228
      H   59    0.23095      0.00000     0.76713    0.00192     0.76905
      H   60    0.21936      0.00000     0.77925    0.00139     0.78064
      H   61    0.21986      0.00000     0.77895    0.00120     0.78014
      H   62    0.21799      0.00000     0.78092    0.00109     0.78201
      H   63    0.21486      0.00000     0.78411    0.00103     0.78514
      H   64    0.22937      0.00000     0.76866    0.00197     0.77063
      H   65    0.22053      0.00000     0.77784    0.00164     0.77947
      H   66    0.22949      0.00000     0.76781    0.00270     0.77051
      H   67    0.21811      0.00000     0.78053    0.00136     0.78189
      H   68    0.21743      0.00000     0.78139    0.00119     0.78257
      H   69    0.21911      0.00000     0.77964    0.00125     0.78089
      H   70    0.22966      0.00000     0.76884    0.00149     0.77034
      H   71    0.21654      0.00000     0.78221    0.00125     0.78346
      H   72    0.21595      0.00000     0.78287    0.00117     0.78405
      H   73    0.21572      0.00000     0.78301    0.00127     0.78428
      H   74    0.21807      0.00000     0.78062    0.00132     0.78193
 =======================================================================
   * Total *   -0.00000     99.96074   203.10454    0.93472   304.00000

 Normal termination of Gaussian 09 at Mon Dec  6 02:53:55 2021.
