 Gaussian 09, Revision E.01,

 ----------------------------------------------------------------------
 # PBE1PBE/def2TZVP int=(grid=ultrafine) empiricaldispersion=GD3BJ nmr=
 giao
 ----------------------------------------------------------------------

 ----------------
 XantPhos_4 title
 ----------------
 Symbolic Z-matrix:
 Charge =  0 Multiplicity = 1

 SCF Done:  E(RPBE1PBE) =  -2261.88770206     A.U. after   15 cycles

      1  P    Isotropic =   313.5207   Anisotropy =    46.3647

      2  C    Isotropic =    48.2181   Anisotropy =   165.0512

      3  C    Isotropic =    40.0535   Anisotropy =   191.6510

      4  C    Isotropic =    56.7670   Anisotropy =   174.3785

      5  C    Isotropic =    54.3775   Anisotropy =   177.8486

      6  C    Isotropic =    42.5388   Anisotropy =   168.4320

      7  C    Isotropic =    18.1851   Anisotropy =   129.9238

      8  O    Isotropic =   141.0643   Anisotropy =   189.8632

      9  C    Isotropic =   142.7961   Anisotropy =     8.2258

     10  C    Isotropic =   162.4565   Anisotropy =    29.3588

     11  C    Isotropic =   154.5766   Anisotropy =    44.0060

     12  C    Isotropic =    41.0101   Anisotropy =   208.3594

     13  C    Isotropic =    46.9789   Anisotropy =   199.9327

     14  C    Isotropic =    52.0616   Anisotropy =   187.8674

     15  C    Isotropic =    49.7935   Anisotropy =   194.7476

     16  C    Isotropic =    51.5593   Anisotropy =   193.0439

     17  C    Isotropic =    39.1914   Anisotropy =   197.5457

     18  C    Isotropic =    31.5943   Anisotropy =   202.7171

     19  C    Isotropic =    49.7973   Anisotropy =   185.2221

     20  C    Isotropic =    55.1454   Anisotropy =   180.6989

     21  C    Isotropic =    53.2276   Anisotropy =   183.2479

     22  C    Isotropic =    52.4127   Anisotropy =   183.1218

     23  C    Isotropic =    47.8001   Anisotropy =   192.0720

     24  H    Isotropic =    23.7002   Anisotropy =    10.4128

     25  H    Isotropic =    23.6278   Anisotropy =     9.3124

     26  H    Isotropic =    23.9402   Anisotropy =     5.5612

     27  H    Isotropic =    29.8682   Anisotropy =     9.0306

     28  H    Isotropic =    29.2764   Anisotropy =     8.9933

     29  H    Isotropic =    29.1415   Anisotropy =     6.5022

     30  H    Isotropic =    30.1387   Anisotropy =     9.7407

     31  H    Isotropic =    23.7889   Anisotropy =    12.2936

     32  H    Isotropic =    24.1752   Anisotropy =     3.5594

     33  H    Isotropic =    24.2380   Anisotropy =     7.3371

     34  H    Isotropic =    24.9239   Anisotropy =    15.7876

     35  H    Isotropic =    23.9841   Anisotropy =    11.8706

     36  H    Isotropic =    24.2284   Anisotropy =     5.9822

     37  H    Isotropic =    24.3430   Anisotropy =     3.2743

     38  H    Isotropic =    24.6706   Anisotropy =     4.9066

     39  H    Isotropic =    23.5673   Anisotropy =     6.1159

     40  P    Isotropic =   313.1428   Anisotropy =    25.4131

     41  C    Isotropic =    47.2609   Anisotropy =   163.6888

     42  C    Isotropic =    40.7177   Anisotropy =   190.8901

     43  C    Isotropic =    55.9568   Anisotropy =   176.4636

     44  C    Isotropic =    54.6491   Anisotropy =   178.8448

     45  C    Isotropic =    43.2143   Anisotropy =   169.2631

     46  C    Isotropic =    17.7067   Anisotropy =   133.0307

     47  C    Isotropic =    31.6264   Anisotropy =   208.5516

     48  C    Isotropic =    54.0096   Anisotropy =   190.8993

     49  C    Isotropic =    54.9491   Anisotropy =   181.8289

     50  C    Isotropic =    55.2138   Anisotropy =   185.1440

     51  C    Isotropic =    51.8490   Anisotropy =   192.7209

     52  C    Isotropic =    45.9800   Anisotropy =   200.6607

     53  C    Isotropic =    42.6669   Anisotropy =   197.5388

     54  C    Isotropic =    44.7109   Anisotropy =   185.4916

     55  C    Isotropic =    52.6031   Anisotropy =   185.7041

     56  C    Isotropic =    52.1767   Anisotropy =   184.6000

     57  C    Isotropic =    50.7385   Anisotropy =   186.2534

     58  C    Isotropic =    49.4775   Anisotropy =   186.7672

     59  H    Isotropic =    23.7953   Anisotropy =    10.1954

     60  H    Isotropic =    23.7756   Anisotropy =     9.1550

     61  H    Isotropic =    24.1625   Anisotropy =     5.3415

     62  H    Isotropic =    29.3216   Anisotropy =     9.2133

     63  H    Isotropic =    30.1507   Anisotropy =     9.9054

     64  H    Isotropic =    23.1346   Anisotropy =    10.1170

     65  H    Isotropic =    23.0330   Anisotropy =    12.4045

     66  H    Isotropic =    24.1730   Anisotropy =    12.0964

     67  H    Isotropic =    24.5490   Anisotropy =     5.3356

     68  H    Isotropic =    24.8705   Anisotropy =     3.7747

     69  H    Isotropic =    25.6253   Anisotropy =     6.5474

     70  H    Isotropic =    26.2937   Anisotropy =     9.1707

     71  H    Isotropic =    23.6941   Anisotropy =     6.3854

     72  H    Isotropic =    23.7333   Anisotropy =     4.1543

     73  H    Isotropic =    23.4923   Anisotropy =     6.1082

     74  H    Isotropic =    24.0130   Anisotropy =     6.1351

 Normal termination of Gaussian 09 at Sat Feb 12 14:55:13 2022.
 Gaussian 09:  ES64L-G09RevE.01 30-Nov-2015

 ----------------------------------------------------------------------
 # PBE1PBE/def2TZVP int=(grid=ultrafine) empiricaldispersion=GD3BJ pop=
 nbo guess=read geom=check
 ----------------------------------------------------------------------

 ----------------
 XantPhos_4 title
 ----------------
 Structure from the checkpoint file:  "XantPhos_4_SPE_NoPd.chk"
 Charge =  0 Multiplicity = 1

                         Standard orientation:
 ---------------------------------------------------------------------
 Center     Atomic      Atomic             Coordinates (Angstroms)
 Number     Number       Type             X           Y           Z
 ---------------------------------------------------------------------
      1         15           0       -1.755702   -0.743115   -0.794153
      2          6           0       -2.215296    0.965510   -0.239892
      3          6           0       -3.450363    1.250125    0.382192
      4          6           0       -3.691797    2.513005    0.936608
      5          6           0       -2.713284    3.520081    0.881710
      6          6           0       -1.494944    3.296942    0.224951
      7          6           0       -1.295880    2.025067   -0.342530
      8          8           0       -0.122222    1.791885   -1.027988
      9          6           0       -0.364730    4.324576    0.036366
     10          6           0       -0.466946    5.481051    1.041602
     11          6           0       -0.455125    4.893775   -1.409173
     12          6           0       -1.509813   -1.705342    0.755740
     13          6           0       -2.156977   -1.407429    1.968798
     14          6           0       -2.011077   -2.261543    3.068942
     15          6           0       -1.224033   -3.417773    2.966029
     16          6           0       -0.573731   -3.716909    1.760739
     17          6           0       -0.710403   -2.861065    0.661067
     18          6           0       -3.379794   -1.391108   -1.369274
     19          6           0       -4.170256   -0.610098   -2.237999
     20          6           0       -5.865337   -2.351015   -2.268602
     21          6           0       -5.410480   -1.087408   -2.674718
     22          6           0       -5.076006   -3.135224   -1.417888
     23          6           0       -3.837724   -2.658296   -0.965172
     24          1           0       -4.218766    0.472304    0.428413
     25          1           0       -2.916171    4.490986    1.343077
     26          1           0       -4.650558    2.715802    1.423521
     27          1           0       -0.412290    5.125439    2.084486
     28          1           0       -1.414532    6.027791    0.906449
     29          1           0       -0.382968    4.093055   -2.162194
     30          1           0       -1.416136    5.417913   -1.548164
     31          1           0       -3.809868    0.365009   -2.574595
     32          1           0       -6.833169   -2.724317   -2.618973
     33          1           0       -5.423273   -4.122848   -1.097363
     34          1           0       -3.233691   -3.273759   -0.292553
     35          1           0       -2.768463   -0.504878    2.058293
     36          1           0       -2.514067   -2.021753    4.011750
     37          1           0       -1.109504   -4.081365    3.829196
     38          1           0        0.056896   -4.607668    1.680646
     39          1           0       -0.194246   -3.074531   -0.282309
     40         15           0        1.883887   -0.357323   -0.789458
     41          6           0        2.120621    1.416915   -0.323710
     42          6           0        3.245019    1.891235    0.383869
     43          6           0        3.244828    3.177294    0.936352
     44          6           0        2.108621    3.998822    0.845600
     45          6           0        0.960018    3.555491    0.175558
     46          6           0        1.014963    2.279126   -0.411847
     47          6           0        1.971524   -1.066066    0.925761
     48          6           0        2.780576   -2.172361    1.246013
     49          6           0        2.825715   -2.659647    2.560139
     50          6           0        2.064571   -2.053086    3.566589
     51          6           0        1.254023   -0.951447    3.254149
     52          6           0        1.207483   -0.461617    1.945820
     53          6           0        3.420160   -1.001403   -1.558527
     54          6           0        3.390913   -2.350135   -1.970380
     55          6           0        5.693762   -2.184809   -2.719087
     56          6           0        4.525666   -2.939974   -2.537156
     57          6           0        5.714266   -0.835740   -2.342674
     58          6           0        4.584012   -0.242431   -1.763704
     59          1           0        4.102541    1.232414    0.546245
     60          1           0        2.118478    4.982692    1.323450
     61          1           0        4.127234    3.532752    1.477019
     62          1           0        0.344832    6.208205    0.875881
     63          1           0        0.367028    5.608696   -1.583330
     64          1           0        2.461819   -2.924608   -1.882518
     65          1           0        4.599945    0.821845   -1.519217
     66          1           0        3.395759   -2.643214    0.474706
     67          1           0        3.469506   -3.513840    2.795262
     68          1           0        2.102427   -2.434196    4.592280
     69          1           0        0.650454   -0.472844    4.031642
     70          1           0        0.579232    0.406279    1.720409
     71          1           0        6.610931   -0.231129   -2.513559
     72          1           0        6.577864   -2.642065   -3.174574
     73          1           0        4.488273   -3.985237   -2.860253
     74          1           0       -6.016978   -0.473957   -3.348620
 ---------------------------------------------------------------------

 SCF Done:  E(RPBE1PBE) =  -2261.88770206     A.U. after    3 cycles

 The electronic state is 1-A.
 Alpha  occ. eigenvalues --  -77.20243 -77.19764 -19.25135 -10.29703 -10.29649
 Alpha  occ. eigenvalues --  -10.26865 -10.24832 -10.24779 -10.24496 -10.24316
 Alpha  occ. eigenvalues --  -10.24284 -10.24259 -10.24175 -10.23946 -10.23785
 Alpha  occ. eigenvalues --  -10.23586 -10.23575 -10.23518 -10.23468 -10.23453
 Alpha  occ. eigenvalues --  -10.23400 -10.23399 -10.23375 -10.23328 -10.23289
 Alpha  occ. eigenvalues --  -10.23113 -10.23090 -10.22922 -10.22914 -10.22854
 Alpha  occ. eigenvalues --  -10.22736 -10.22595 -10.22533 -10.22491 -10.22405
 Alpha  occ. eigenvalues --  -10.22373 -10.22355 -10.22330 -10.22297 -10.22230
 Alpha  occ. eigenvalues --  -10.22211 -10.22182  -6.59791  -6.59318  -4.73409
 Alpha  occ. eigenvalues --   -4.73355  -4.72935  -4.72915  -4.72885  -4.72440
 Alpha  occ. eigenvalues --   -1.11969  -0.89492  -0.89257  -0.88187  -0.87803
 Alpha  occ. eigenvalues --   -0.87071  -0.86831  -0.84680  -0.79712  -0.78854
 Alpha  occ. eigenvalues --   -0.78330  -0.77227  -0.76896  -0.76579  -0.76300
 Alpha  occ. eigenvalues --   -0.76031  -0.75784  -0.75726  -0.75518  -0.74875
 Alpha  occ. eigenvalues --   -0.71667  -0.67500  -0.66792  -0.65374  -0.65265
 Alpha  occ. eigenvalues --   -0.62728  -0.62215  -0.61853  -0.61696  -0.61111
 Alpha  occ. eigenvalues --   -0.60970  -0.60788  -0.60477  -0.58141  -0.57524
 Alpha  occ. eigenvalues --   -0.56448  -0.55825  -0.52907  -0.52712  -0.51937
 Alpha  occ. eigenvalues --   -0.51320  -0.50723  -0.49677  -0.49222  -0.48079
 Alpha  occ. eigenvalues --   -0.47616  -0.46862  -0.46623  -0.46480  -0.46432
 Alpha  occ. eigenvalues --   -0.46221  -0.45840  -0.45697  -0.45546  -0.45448
 Alpha  occ. eigenvalues --   -0.45289  -0.43657  -0.43146  -0.42868  -0.42787
 Alpha  occ. eigenvalues --   -0.42590  -0.42383  -0.42059  -0.41687  -0.41469
 Alpha  occ. eigenvalues --   -0.40470  -0.40370  -0.39670  -0.39383  -0.39125
 Alpha  occ. eigenvalues --   -0.38699  -0.38494  -0.38176  -0.37916  -0.37628
 Alpha  occ. eigenvalues --   -0.37098  -0.36257  -0.36166  -0.35926  -0.35434
 Alpha  occ. eigenvalues --   -0.35230  -0.35213  -0.34788  -0.34598  -0.33410
 Alpha  occ. eigenvalues --   -0.33156  -0.33004  -0.32113  -0.29719  -0.28159
 Alpha  occ. eigenvalues --   -0.27594  -0.27292  -0.26927  -0.26825  -0.26465
 Alpha  occ. eigenvalues --   -0.26396  -0.25840  -0.25282  -0.24885  -0.24232
 Alpha  occ. eigenvalues --   -0.22394  -0.19810
 Alpha virt. eigenvalues --   -0.04089  -0.02891  -0.02388  -0.01896  -0.01741
 Alpha virt. eigenvalues --   -0.01472  -0.01226  -0.00924  -0.00684  -0.00207
 Alpha virt. eigenvalues --    0.00235   0.00621   0.03942   0.04204   0.05067

 Mulliken charges:
               1
     1  P    0.118325
     2  C   -0.195194
     3  C   -0.170047
     4  C   -0.151598
     5  C   -0.191897
     6  C    0.013120
     7  C    0.227392
     8  O   -0.236323
     9  C    0.274348
    10  C   -0.450004
    11  C   -0.410859
    12  C   -0.060689
    13  C   -0.077191
    14  C   -0.209606
    15  C   -0.069023
    16  C   -0.124650
    17  C   -0.049219
    18  C    0.120825
    19  C   -0.229270
    20  C   -0.122940
    21  C   -0.109044
    22  C   -0.138535
    23  C   -0.187254
    24  H    0.169261
    25  H    0.117997
    26  H    0.117111
    27  H    0.153420
    28  H    0.134552
    29  H    0.155091
    30  H    0.126897
    31  H    0.124784
    32  H    0.114237
    33  H    0.114487
    34  H    0.147974
    35  H    0.124852
    36  H    0.112292
    37  H    0.112357
    38  H    0.108868
    39  H    0.121469
    40  P    0.128602
    41  C   -0.153812
    42  C   -0.152024
    43  C   -0.173043
    44  C   -0.162415
    45  C    0.001499
    46  C    0.184042
    47  C   -0.027574
    48  C   -0.112960
    49  C   -0.225253
    50  C   -0.077828
    51  C   -0.172150
    52  C   -0.005768
    53  C    0.105666
    54  C   -0.262426
    55  C   -0.125238
    56  C   -0.087167
    57  C   -0.137708
    58  C   -0.202545
    59  H    0.174595
    60  H    0.121042
    61  H    0.115829
    62  H    0.135408
    63  H    0.126676
    64  H    0.137782
    65  H    0.164376
    66  H    0.142439
    67  H    0.109217
    68  H    0.107804
    69  H    0.103897
    70  H    0.122239
    71  H    0.116997
    72  H    0.118420
    73  H    0.119584
    74  H    0.115483
 Sum of Mulliken charges =  -0.00000

 Dipole moment (field-independent basis, Debye):
    X=              0.4824    Y=              1.6446    Z=              2.4197  Tot=              2.9652
 Quadrupole moment (field-independent basis, Debye-Ang):
   XX=           -242.2840   YY=           -230.8199   ZZ=           -256.2712
   XY=             -5.8319   XZ=             -5.1071   YZ=              0.9756

 Summary of Natural Population Analysis:

                                       Natural Population
                Natural  -----------------------------------------------
    Atom  No    Charge         Core      Valence    Rydberg      Total
 -----------------------------------------------------------------------
      P    1    0.84388      9.99785     4.12949    0.02878    14.15612
      C    2   -0.35316      1.99889     4.32433    0.02995     6.35316
      C    3   -0.19706      1.99914     4.17877    0.01915     6.19706
      C    4   -0.22848      1.99922     4.21147    0.01779     6.22848
      C    5   -0.19453      1.99913     4.17786    0.01753     6.19453
      C    6   -0.05839      1.99893     4.03896    0.02050     6.05839
      C    7    0.28760      1.99860     3.69091    0.02288     5.71240
      O    8   -0.45361      1.99972     6.43075    0.02314     8.45361
      C    9   -0.07470      1.99930     4.05714    0.01826     6.07470
      C   10   -0.61786      1.99944     4.60550    0.01292     6.61786
      C   11   -0.60213      1.99940     4.59105    0.01168     6.60213
      C   12   -0.32249      1.99902     4.29099    0.03247     6.32249
      C   13   -0.21126      1.99908     4.19309    0.01909     6.21126
      C   14   -0.21549      1.99920     4.19818    0.01811     6.21549
      C   15   -0.20449      1.99921     4.18664    0.01863     6.20449
      C   16   -0.20904      1.99920     4.19096    0.01888     6.20904
      C   17   -0.20524      1.99909     4.18489    0.02126     6.20524
      C   18   -0.31844      1.99905     4.28884    0.03055     6.31844
      C   19   -0.21983      1.99912     4.20152    0.01919     6.21983
      C   20   -0.22611      1.99922     4.20829    0.01861     6.22611
      C   21   -0.20964      1.99921     4.19251    0.01791     6.20964
      C   22   -0.20671      1.99921     4.18959    0.01791     6.20671
      C   23   -0.22189      1.99911     4.20332    0.01946     6.22189
      H   24    0.23397      0.00000     0.76406    0.00196     0.76603
      H   25    0.22021      0.00000     0.77840    0.00139     0.77979
      H   26    0.22054      0.00000     0.77826    0.00120     0.77946
      H   27    0.22393      0.00000     0.77504    0.00103     0.77607
      H   28    0.21854      0.00000     0.78037    0.00109     0.78146
      H   29    0.22819      0.00000     0.77088    0.00093     0.77181
      H   30    0.21457      0.00000     0.78440    0.00103     0.78543
      H   31    0.22165      0.00000     0.77675    0.00160     0.77835
      H   32    0.21606      0.00000     0.78277    0.00117     0.78394
      H   33    0.21626      0.00000     0.78249    0.00126     0.78374
      H   34    0.22854      0.00000     0.76959    0.00187     0.77146
      H   35    0.22486      0.00000     0.77294    0.00221     0.77514
      H   36    0.21655      0.00000     0.78212    0.00133     0.78345
      H   37    0.21771      0.00000     0.78108    0.00121     0.78229
      H   38    0.22163      0.00000     0.77703    0.00134     0.77837
      H   39    0.22746      0.00000     0.77040    0.00214     0.77254
      P   40    0.85176      9.99787     4.12134    0.02903    14.14824
      C   41   -0.35198      1.99887     4.32360    0.02950     6.35198
      C   42   -0.18715      1.99913     4.16917    0.01886     6.18715
      C   43   -0.22422      1.99922     4.20731    0.01768     6.22422
      C   44   -0.19201      1.99913     4.17547    0.01741     6.19201
      C   45   -0.05915      1.99892     4.03973    0.02049     6.05915
      C   46    0.28955      1.99859     3.68913    0.02273     5.71045
      C   47   -0.29968      1.99900     4.26853    0.03215     6.29968
      C   48   -0.23436      1.99910     4.21608    0.01918     6.23436
      C   49   -0.21304      1.99920     4.19581    0.01803     6.21304
      C   50   -0.22257      1.99921     4.20439    0.01897     6.22257
      C   51   -0.20363      1.99920     4.18493    0.01950     6.20363
      C   52   -0.21496      1.99909     4.19440    0.02147     6.21496
      C   53   -0.32318      1.99904     4.29355    0.03059     6.32318
      C   54   -0.21931      1.99912     4.20076    0.01943     6.21931
      C   55   -0.21650      1.99922     4.19899    0.01829     6.21650
      C   56   -0.21012      1.99920     4.19312    0.01780     6.21012
      C   57   -0.20603      1.99921     4.18908    0.01773     6.20603
      C   58   -0.21540      1.99911     4.19742    0.01887     6.21540
      H   59    0.22824      0.00000     0.76975    0.00201     0.77176
      H   60    0.22091      0.00000     0.77770    0.00139     0.77909
      H   61    0.22066      0.00000     0.77815    0.00119     0.77934
      H   62    0.21846      0.00000     0.78045    0.00109     0.78154
      H   63    0.21457      0.00000     0.78441    0.00103     0.78543
      H   64    0.22391      0.00000     0.77442    0.00167     0.77609
      H   65    0.22412      0.00000     0.77396    0.00192     0.77588
      H   66    0.22594      0.00000     0.77215    0.00191     0.77406
      H   67    0.21498      0.00000     0.78374    0.00128     0.78502
      H   68    0.21517      0.00000     0.78363    0.00121     0.78483
      H   69    0.21910      0.00000     0.77956    0.00134     0.78090
      H   70    0.22205      0.00000     0.77582    0.00213     0.77795
      H   71    0.21763      0.00000     0.78111    0.00126     0.78237
      H   72    0.21861      0.00000     0.78023    0.00116     0.78139
      H   73    0.21950      0.00000     0.77926    0.00124     0.78050
      H   74    0.21654      0.00000     0.78221    0.00126     0.78346
 =======================================================================
   * Total *    0.00000     99.96079   203.11100    0.92821   304.00000

 Normal termination of Gaussian 09 at Sat Feb 12 15:15:47 2022.
