 Gaussian 09, Revision E.01,

 ----------------------------------------------------------------------
 # PBE1PBE/def2TZVP int=(grid=ultrafine) empiricaldispersion=GD3BJ nmr=
 giao
 ----------------------------------------------------------------------

 ----------------
 XantPhos_2 title
 ----------------
 Symbolic Z-matrix:
 Charge =  0 Multiplicity = 1

 SCF Done:  E(RPBE1PBE) =  -2261.88770204     A.U. after   15 cycles

      1  P    Isotropic =   313.1428   Anisotropy =    25.4133

      2  C    Isotropic =    47.2609   Anisotropy =   163.6888

      3  C    Isotropic =    40.7177   Anisotropy =   190.8901

      4  C    Isotropic =    55.9568   Anisotropy =   176.4636

      5  C    Isotropic =    54.6491   Anisotropy =   178.8448

      6  C    Isotropic =    43.2143   Anisotropy =   169.2631

      7  C    Isotropic =    17.7067   Anisotropy =   133.0308

      8  O    Isotropic =   141.0643   Anisotropy =   189.8632

      9  C    Isotropic =   142.7961   Anisotropy =     8.2258

     10  C    Isotropic =   162.4565   Anisotropy =    29.3588

     11  C    Isotropic =   154.5766   Anisotropy =    44.0060

     12  C    Isotropic =    31.6264   Anisotropy =   208.5516

     13  C    Isotropic =    54.0096   Anisotropy =   190.8993

     14  C    Isotropic =    54.9492   Anisotropy =   181.8289

     15  C    Isotropic =    55.2138   Anisotropy =   185.1440

     16  C    Isotropic =    51.8490   Anisotropy =   192.7209

     17  C    Isotropic =    45.9800   Anisotropy =   200.6607

     18  C    Isotropic =    42.6669   Anisotropy =   197.5388

     19  C    Isotropic =    44.7109   Anisotropy =   185.4915

     20  C    Isotropic =    52.6031   Anisotropy =   185.7041

     21  C    Isotropic =    52.1767   Anisotropy =   184.6000

     22  C    Isotropic =    50.7385   Anisotropy =   186.2534

     23  C    Isotropic =    49.4775   Anisotropy =   186.7672

     24  H    Isotropic =    23.7953   Anisotropy =    10.1954

     25  H    Isotropic =    23.7756   Anisotropy =     9.1550

     26  H    Isotropic =    24.1625   Anisotropy =     5.3415

     27  H    Isotropic =    29.8682   Anisotropy =     9.0306

     28  H    Isotropic =    29.3216   Anisotropy =     9.2133

     29  H    Isotropic =    29.1415   Anisotropy =     6.5022

     30  H    Isotropic =    30.1507   Anisotropy =     9.9054

     31  H    Isotropic =    23.1346   Anisotropy =    10.1170

     32  H    Isotropic =    23.7333   Anisotropy =     4.1543

     33  H    Isotropic =    23.6941   Anisotropy =     6.3854

     34  H    Isotropic =    23.0330   Anisotropy =    12.4045

     35  H    Isotropic =    24.1730   Anisotropy =    12.0964

     36  H    Isotropic =    24.5490   Anisotropy =     5.3356

     37  H    Isotropic =    24.8705   Anisotropy =     3.7747

     38  H    Isotropic =    25.6253   Anisotropy =     6.5474

     39  H    Isotropic =    26.2937   Anisotropy =     9.1707

     40  P    Isotropic =   313.5207   Anisotropy =    46.3647

     41  C    Isotropic =    48.2181   Anisotropy =   165.0512

     42  C    Isotropic =    40.0535   Anisotropy =   191.6510

     43  C    Isotropic =    56.7671   Anisotropy =   174.3785

     44  C    Isotropic =    54.3775   Anisotropy =   177.8486

     45  C    Isotropic =    42.5388   Anisotropy =   168.4320

     46  C    Isotropic =    18.1851   Anisotropy =   129.9238

     47  C    Isotropic =    41.0101   Anisotropy =   208.3595

     48  C    Isotropic =    46.9789   Anisotropy =   199.9327

     49  C    Isotropic =    52.0616   Anisotropy =   187.8673

     50  C    Isotropic =    49.7936   Anisotropy =   194.7475

     51  C    Isotropic =    51.5593   Anisotropy =   193.0439

     52  C    Isotropic =    39.1914   Anisotropy =   197.5457

     53  C    Isotropic =    31.5943   Anisotropy =   202.7171

     54  C    Isotropic =    49.7973   Anisotropy =   185.2221

     55  C    Isotropic =    55.1454   Anisotropy =   180.6989

     56  C    Isotropic =    53.2277   Anisotropy =   183.2479

     57  C    Isotropic =    52.4127   Anisotropy =   183.1218

     58  C    Isotropic =    47.8001   Anisotropy =   192.0720

     59  H    Isotropic =    23.7002   Anisotropy =    10.4128

     60  H    Isotropic =    23.6278   Anisotropy =     9.3124

     61  H    Isotropic =    23.9402   Anisotropy =     5.5612

     62  H    Isotropic =    29.2764   Anisotropy =     8.9933

     63  H    Isotropic =    30.1387   Anisotropy =     9.7407

     64  H    Isotropic =    23.7889   Anisotropy =    12.2936

     65  H    Isotropic =    24.9239   Anisotropy =    15.7876

     66  H    Isotropic =    23.9841   Anisotropy =    11.8706

     67  H    Isotropic =    24.2284   Anisotropy =     5.9822

     68  H    Isotropic =    24.3430   Anisotropy =     3.2743

     69  H    Isotropic =    24.6706   Anisotropy =     4.9066

     70  H    Isotropic =    23.5673   Anisotropy =     6.1159

     71  H    Isotropic =    24.2380   Anisotropy =     7.3371

     72  H    Isotropic =    24.1752   Anisotropy =     3.5594

     73  H    Isotropic =    24.0130   Anisotropy =     6.1351

     74  H    Isotropic =    23.4923   Anisotropy =     6.1082

 Normal termination of Gaussian 09 at Mon Dec  6 02:56:29 2021.
 Gaussian 09:  ES64L-G09RevE.01 30-Nov-2015

 ----------------------------------------------------------------------
 # PBE1PBE/def2TZVP int=(grid=ultrafine) empiricaldispersion=GD3BJ pop=
 nbo guess=read geom=check
 ----------------------------------------------------------------------

 ----------------
 XantPhos_2 title
 ----------------
 Structure from the checkpoint file:  "XantPhos_2_SPE_NoPd.chk"
 Charge =  0 Multiplicity = 1

                         Standard orientation:
 ---------------------------------------------------------------------
 Center     Atomic      Atomic             Coordinates (Angstroms)
 Number     Number       Type             X           Y           Z
 ---------------------------------------------------------------------
      1         15           0       -1.883887   -0.357322   -0.789458
      2          6           0       -2.120620    1.416916   -0.323709
      3          6           0       -3.245018    1.891236    0.383870
      4          6           0       -3.244827    3.177295    0.936353
      5          6           0       -2.108619    3.998823    0.845601
      6          6           0       -0.960017    3.555492    0.175558
      7          6           0       -1.014962    2.279126   -0.411846
      8          8           0        0.122222    1.791886   -1.027988
      9          6           0        0.364732    4.324576    0.036366
     10          6           0        0.466949    5.481050    1.041603
     11          6           0        0.455126    4.893777   -1.409173
     12          6           0       -1.971525   -1.066067    0.925760
     13          6           0       -2.780575   -2.172364    1.246010
     14          6           0       -2.825715   -2.659651    2.560135
     15          6           0       -2.064573   -2.053089    3.566588
     16          6           0       -1.254026   -0.951449    3.254149
     17          6           0       -1.207485   -0.461617    1.945821
     18          6           0       -3.420161   -1.001401   -1.558527
     19          6           0       -3.390913   -2.350133   -1.970383
     20          6           0       -5.693763   -2.184808   -2.719086
     21          6           0       -4.525666   -2.939971   -2.537157
     22          6           0       -5.714268   -0.835740   -2.342670
     23          6           0       -4.584013   -0.242431   -1.763701
     24          1           0       -4.102540    1.232415    0.546248
     25          1           0       -2.118476    4.982693    1.323451
     26          1           0       -4.127232    3.532753    1.477021
     27          1           0        0.412292    5.125438    2.084487
     28          1           0       -0.344829    6.208206    0.875882
     29          1           0        0.382968    4.093057   -2.162194
     30          1           0       -0.367028    5.608698   -1.583329
     31          1           0       -2.461818   -2.924604   -1.882524
     32          1           0       -6.577865   -2.642065   -3.174572
     33          1           0       -6.610934   -0.231130   -2.513552
     34          1           0       -4.599948    0.821845   -1.519212
     35          1           0       -3.395756   -2.643216    0.474702
     36          1           0       -3.469504   -3.513844    2.795257
     37          1           0       -2.102430   -2.434199    4.592278
     38          1           0       -0.650459   -0.472846    4.031643
     39          1           0       -0.579235    0.406279    1.720410
     40         15           0        1.755702   -0.743115   -0.794154
     41          6           0        2.215297    0.965510   -0.239893
     42          6           0        3.450364    1.250124    0.382190
     43          6           0        3.691799    2.513005    0.936605
     44          6           0        2.713286    3.520081    0.881708
     45          6           0        1.494946    3.296942    0.224950
     46          6           0        1.295881    2.025067   -0.342531
     47          6           0        1.509813   -1.705340    0.755740
     48          6           0        2.156976   -1.407427    1.968798
     49          6           0        2.011078   -2.261541    3.068943
     50          6           0        1.224034   -3.417771    2.966030
     51          6           0        0.573732   -3.716908    1.760740
     52          6           0        0.710402   -2.861064    0.661068
     53          6           0        3.379793   -1.391110   -1.369274
     54          6           0        4.170256   -0.610100   -2.237999
     55          6           0        5.865336   -2.351019   -2.268600
     56          6           0        5.410480   -1.087412   -2.674716
     57          6           0        5.076004   -3.135227   -1.417886
     58          6           0        3.837722   -2.658298   -0.965171
     59          1           0        4.218766    0.472303    0.428411
     60          1           0        2.916174    4.490986    1.343074
     61          1           0        4.650560    2.715802    1.423517
     62          1           0        1.414535    6.027790    0.906450
     63          1           0        1.416137    5.417915   -1.548164
     64          1           0        3.809869    0.365006   -2.574595
     65          1           0        3.233688   -3.273760   -0.292551
     66          1           0        2.768462   -0.504876    2.058292
     67          1           0        2.514067   -2.021750    4.011750
     68          1           0        1.109506   -4.081363    3.829197
     69          1           0       -0.056894   -4.607667    1.680648
     70          1           0        0.194245   -3.074531   -0.282307
     71          1           0        5.423270   -4.122852   -1.097361
     72          1           0        6.833167   -2.724322   -2.618970
     73          1           0        6.016979   -0.473962   -3.348619
     74          1           0       -4.488273   -3.985235   -2.860257
 ---------------------------------------------------------------------

 SCF Done:  E(RPBE1PBE) =  -2261.88770204     A.U. after    2 cycles

 The electronic state is 1-A.
 Alpha  occ. eigenvalues --  -77.20243 -77.19765 -19.25135 -10.29703 -10.29649
 Alpha  occ. eigenvalues --  -10.26865 -10.24832 -10.24779 -10.24496 -10.24316
 Alpha  occ. eigenvalues --  -10.24284 -10.24259 -10.24175 -10.23946 -10.23785
 Alpha  occ. eigenvalues --  -10.23586 -10.23575 -10.23517 -10.23468 -10.23453
 Alpha  occ. eigenvalues --  -10.23400 -10.23399 -10.23375 -10.23328 -10.23289
 Alpha  occ. eigenvalues --  -10.23113 -10.23090 -10.22922 -10.22914 -10.22854
 Alpha  occ. eigenvalues --  -10.22736 -10.22594 -10.22533 -10.22491 -10.22405
 Alpha  occ. eigenvalues --  -10.22373 -10.22355 -10.22330 -10.22297 -10.22230
 Alpha  occ. eigenvalues --  -10.22211 -10.22181  -6.59791  -6.59318  -4.73409
 Alpha  occ. eigenvalues --   -4.73355  -4.72935  -4.72915  -4.72885  -4.72440
 Alpha  occ. eigenvalues --   -1.11969  -0.89492  -0.89257  -0.88187  -0.87803
 Alpha  occ. eigenvalues --   -0.87071  -0.86831  -0.84680  -0.79712  -0.78854
 Alpha  occ. eigenvalues --   -0.78330  -0.77227  -0.76896  -0.76579  -0.76300
 Alpha  occ. eigenvalues --   -0.76031  -0.75784  -0.75726  -0.75518  -0.74875
 Alpha  occ. eigenvalues --   -0.71667  -0.67500  -0.66792  -0.65374  -0.65265
 Alpha  occ. eigenvalues --   -0.62728  -0.62215  -0.61853  -0.61696  -0.61111
 Alpha  occ. eigenvalues --   -0.60970  -0.60788  -0.60477  -0.58141  -0.57524
 Alpha  occ. eigenvalues --   -0.56448  -0.55825  -0.52907  -0.52712  -0.51937
 Alpha  occ. eigenvalues --   -0.51320  -0.50723  -0.49677  -0.49222  -0.48079
 Alpha  occ. eigenvalues --   -0.47616  -0.46862  -0.46623  -0.46480  -0.46432
 Alpha  occ. eigenvalues --   -0.46221  -0.45840  -0.45697  -0.45546  -0.45448
 Alpha  occ. eigenvalues --   -0.45289  -0.43657  -0.43146  -0.42868  -0.42787
 Alpha  occ. eigenvalues --   -0.42590  -0.42383  -0.42059  -0.41687  -0.41469
 Alpha  occ. eigenvalues --   -0.40470  -0.40370  -0.39670  -0.39383  -0.39125
 Alpha  occ. eigenvalues --   -0.38699  -0.38494  -0.38176  -0.37916  -0.37628
 Alpha  occ. eigenvalues --   -0.37098  -0.36257  -0.36166  -0.35926  -0.35434
 Alpha  occ. eigenvalues --   -0.35230  -0.35213  -0.34788  -0.34598  -0.33410
 Alpha  occ. eigenvalues --   -0.33156  -0.33004  -0.32113  -0.29719  -0.28159
 Alpha  occ. eigenvalues --   -0.27594  -0.27292  -0.26927  -0.26825  -0.26465
 Alpha  occ. eigenvalues --   -0.26396  -0.25840  -0.25282  -0.24885  -0.24232
 Alpha  occ. eigenvalues --   -0.22394  -0.19810
 Alpha virt. eigenvalues --   -0.04089  -0.02891  -0.02388  -0.01896  -0.01741
 Alpha virt. eigenvalues --   -0.01472  -0.01226  -0.00924  -0.00684  -0.00207
 Alpha virt. eigenvalues --    0.00235   0.00621   0.03942   0.04204   0.05067

 Mulliken charges:
               1
     1  P    0.128602
     2  C   -0.153812
     3  C   -0.152024
     4  C   -0.173043
     5  C   -0.162415
     6  C    0.001498
     7  C    0.184042
     8  O   -0.236322
     9  C    0.274348
    10  C   -0.450004
    11  C   -0.410859
    12  C   -0.027573
    13  C   -0.112959
    14  C   -0.225253
    15  C   -0.077829
    16  C   -0.172150
    17  C   -0.005767
    18  C    0.105666
    19  C   -0.262425
    20  C   -0.125239
    21  C   -0.087168
    22  C   -0.137708
    23  C   -0.202544
    24  H    0.174595
    25  H    0.121042
    26  H    0.115829
    27  H    0.153420
    28  H    0.135408
    29  H    0.155091
    30  H    0.126676
    31  H    0.137782
    32  H    0.118420
    33  H    0.116997
    34  H    0.164375
    35  H    0.142439
    36  H    0.109217
    37  H    0.107804
    38  H    0.103897
    39  H    0.122239
    40  P    0.118325
    41  C   -0.195195
    42  C   -0.170047
    43  C   -0.151598
    44  C   -0.191896
    45  C    0.013121
    46  C    0.227392
    47  C   -0.060690
    48  C   -0.077192
    49  C   -0.209606
    50  C   -0.069023
    51  C   -0.124650
    52  C   -0.049219
    53  C    0.120825
    54  C   -0.229270
    55  C   -0.122940
    56  C   -0.109044
    57  C   -0.138535
    58  C   -0.187254
    59  H    0.169261
    60  H    0.117997
    61  H    0.117111
    62  H    0.134552
    63  H    0.126897
    64  H    0.124784
    65  H    0.147974
    66  H    0.124852
    67  H    0.112292
    68  H    0.112357
    69  H    0.108868
    70  H    0.121469
    71  H    0.114487
    72  H    0.114236
    73  H    0.115483
    74  H    0.119584
 Sum of Mulliken charges =  -0.00000

 Dipole moment (field-independent basis, Debye):
    X=             -0.4824    Y=              1.6446    Z=              2.4197  Tot=              2.9652
 Quadrupole moment (field-independent basis, Debye-Ang):
   XX=           -242.2839   YY=           -230.8199   ZZ=           -256.2713
   XY=              5.8319   XZ=              5.1071   YZ=              0.9757

 Summary of Natural Population Analysis:

                                       Natural Population
                Natural  -----------------------------------------------
    Atom  No    Charge         Core      Valence    Rydberg      Total
 -----------------------------------------------------------------------
      P    1    0.85176      9.99787     4.12134    0.02903    14.14824
      C    2   -0.35198      1.99887     4.32360    0.02950     6.35198
      C    3   -0.18715      1.99913     4.16917    0.01886     6.18715
      C    4   -0.22422      1.99922     4.20731    0.01768     6.22422
      C    5   -0.19201      1.99913     4.17547    0.01741     6.19201
      C    6   -0.05915      1.99892     4.03973    0.02049     6.05915
      C    7    0.28955      1.99859     3.68913    0.02273     5.71045
      O    8   -0.45361      1.99972     6.43075    0.02314     8.45361
      C    9   -0.07470      1.99930     4.05714    0.01826     6.07470
      C   10   -0.61786      1.99944     4.60550    0.01292     6.61786
      C   11   -0.60213      1.99940     4.59105    0.01168     6.60213
      C   12   -0.29968      1.99900     4.26853    0.03215     6.29968
      C   13   -0.23436      1.99910     4.21608    0.01918     6.23436
      C   14   -0.21304      1.99920     4.19581    0.01803     6.21304
      C   15   -0.22257      1.99921     4.20439    0.01897     6.22257
      C   16   -0.20364      1.99920     4.18493    0.01950     6.20364
      C   17   -0.21496      1.99909     4.19440    0.02147     6.21496
      C   18   -0.32317      1.99904     4.29355    0.03059     6.32317
      C   19   -0.21931      1.99912     4.20076    0.01943     6.21931
      C   20   -0.21650      1.99922     4.19899    0.01829     6.21650
      C   21   -0.21012      1.99920     4.19312    0.01780     6.21012
      C   22   -0.20603      1.99921     4.18908    0.01773     6.20603
      C   23   -0.21540      1.99911     4.19742    0.01887     6.21540
      H   24    0.22824      0.00000     0.76975    0.00201     0.77176
      H   25    0.22091      0.00000     0.77770    0.00139     0.77909
      H   26    0.22066      0.00000     0.77815    0.00119     0.77934
      H   27    0.22393      0.00000     0.77504    0.00103     0.77607
      H   28    0.21846      0.00000     0.78045    0.00109     0.78154
      H   29    0.22819      0.00000     0.77088    0.00093     0.77181
      H   30    0.21457      0.00000     0.78441    0.00103     0.78543
      H   31    0.22391      0.00000     0.77442    0.00167     0.77609
      H   32    0.21861      0.00000     0.78023    0.00116     0.78139
      H   33    0.21763      0.00000     0.78111    0.00126     0.78237
      H   34    0.22412      0.00000     0.77396    0.00192     0.77588
      H   35    0.22594      0.00000     0.77215    0.00191     0.77406
      H   36    0.21498      0.00000     0.78374    0.00128     0.78502
      H   37    0.21517      0.00000     0.78363    0.00121     0.78483
      H   38    0.21910      0.00000     0.77956    0.00134     0.78090
      H   39    0.22205      0.00000     0.77582    0.00213     0.77795
      P   40    0.84388      9.99785     4.12949    0.02878    14.15612
      C   41   -0.35316      1.99889     4.32433    0.02995     6.35316
      C   42   -0.19706      1.99914     4.17877    0.01915     6.19706
      C   43   -0.22848      1.99922     4.21147    0.01779     6.22848
      C   44   -0.19452      1.99913     4.17786    0.01753     6.19452
      C   45   -0.05839      1.99893     4.03896    0.02050     6.05839
      C   46    0.28760      1.99860     3.69091    0.02288     5.71240
      C   47   -0.32249      1.99902     4.29099    0.03247     6.32249
      C   48   -0.21126      1.99908     4.19309    0.01909     6.21126
      C   49   -0.21549      1.99920     4.19818    0.01811     6.21549
      C   50   -0.20449      1.99921     4.18664    0.01863     6.20449
      C   51   -0.20904      1.99920     4.19096    0.01888     6.20904
      C   52   -0.20524      1.99909     4.18489    0.02126     6.20524
      C   53   -0.31844      1.99905     4.28884    0.03055     6.31844
      C   54   -0.21983      1.99912     4.20152    0.01919     6.21983
      C   55   -0.22611      1.99922     4.20829    0.01861     6.22611
      C   56   -0.20964      1.99921     4.19251    0.01791     6.20964
      C   57   -0.20671      1.99921     4.18959    0.01791     6.20671
      C   58   -0.22189      1.99911     4.20332    0.01946     6.22189
      H   59    0.23397      0.00000     0.76406    0.00196     0.76603
      H   60    0.22021      0.00000     0.77840    0.00139     0.77979
      H   61    0.22054      0.00000     0.77826    0.00120     0.77946
      H   62    0.21854      0.00000     0.78037    0.00109     0.78146
      H   63    0.21457      0.00000     0.78440    0.00103     0.78543
      H   64    0.22165      0.00000     0.77675    0.00160     0.77835
      H   65    0.22854      0.00000     0.76959    0.00187     0.77146
      H   66    0.22486      0.00000     0.77294    0.00221     0.77514
      H   67    0.21655      0.00000     0.78212    0.00133     0.78345
      H   68    0.21771      0.00000     0.78108    0.00121     0.78229
      H   69    0.22163      0.00000     0.77703    0.00134     0.77837
      H   70    0.22746      0.00000     0.77040    0.00214     0.77254
      H   71    0.21626      0.00000     0.78249    0.00126     0.78374
      H   72    0.21606      0.00000     0.78277    0.00117     0.78394
      H   73    0.21654      0.00000     0.78221    0.00126     0.78346
      H   74    0.21950      0.00000     0.77926    0.00124     0.78050
 =======================================================================
   * Total *   -0.00000     99.96079   203.11100    0.92821   304.00000

 Normal termination of Gaussian 09 at Mon Dec  6 03:05:07 2021.
