 Gaussian 09, Revision E.01,

 ----------------------------------------------------------------------
 # PBE1PBE/def2TZVP int=(grid=ultrafine) empiricaldispersion=GD3BJ nmr=
 giao
 ----------------------------------------------------------------------

 ----------------
 XantPhos_5 title
 ----------------
 Symbolic Z-matrix:
 Charge =  0 Multiplicity = 1

 SCF Done:  E(RPBE1PBE) =  -2261.88737683     A.U. after   15 cycles

      1  P    Isotropic =   321.2583   Anisotropy =    54.4848

      2  C    Isotropic =    48.4347   Anisotropy =   166.7789

      3  C    Isotropic =    39.5057   Anisotropy =   193.7520

      4  C    Isotropic =    57.4140   Anisotropy =   173.6679

      5  C    Isotropic =    55.2429   Anisotropy =   178.5706

      6  C    Isotropic =    45.3526   Anisotropy =   167.8908

      7  C    Isotropic =    19.1692   Anisotropy =   133.3683

      8  O    Isotropic =   140.9172   Anisotropy =   191.6594

      9  C    Isotropic =   142.5382   Anisotropy =     8.3189

     10  C    Isotropic =   162.5723   Anisotropy =    30.1838

     11  C    Isotropic =   153.6335   Anisotropy =    44.4428

     12  C    Isotropic =    41.5338   Anisotropy =   210.8128

     13  C    Isotropic =    46.9798   Anisotropy =   204.5701

     14  C    Isotropic =    48.7766   Anisotropy =   195.2817

     15  C    Isotropic =    52.8525   Anisotropy =   188.2124

     16  C    Isotropic =    52.6298   Anisotropy =   186.5958

     17  C    Isotropic =    46.0709   Anisotropy =   188.2132

     18  C    Isotropic =    30.8656   Anisotropy =   206.9886

     19  C    Isotropic =    48.1970   Anisotropy =   191.1172

     20  C    Isotropic =    54.6209   Anisotropy =   181.5492

     21  C    Isotropic =    52.4046   Anisotropy =   182.4637

     22  C    Isotropic =    52.5733   Anisotropy =   183.4418

     23  C    Isotropic =    48.0581   Anisotropy =   185.0612

     24  H    Isotropic =    24.3528   Anisotropy =     9.8640

     25  H    Isotropic =    23.7652   Anisotropy =     8.8529

     26  H    Isotropic =    24.2317   Anisotropy =     5.3197

     27  H    Isotropic =    29.8191   Anisotropy =     9.0052

     28  H    Isotropic =    29.2496   Anisotropy =     9.0491

     29  H    Isotropic =    29.2612   Anisotropy =     7.1042

     30  H    Isotropic =    30.1650   Anisotropy =     9.6382

     31  H    Isotropic =    25.0452   Anisotropy =    16.2471

     32  H    Isotropic =    24.2071   Anisotropy =     3.5144

     33  H    Isotropic =    24.0799   Anisotropy =     6.3603

     34  H    Isotropic =    23.8729   Anisotropy =    11.9565

     35  H    Isotropic =    24.7933   Anisotropy =     8.8426

     36  H    Isotropic =    24.2680   Anisotropy =     5.6703

     37  H    Isotropic =    24.0612   Anisotropy =     2.9528

     38  H    Isotropic =    23.9649   Anisotropy =     5.0256

     39  H    Isotropic =    23.4093   Anisotropy =     7.4946

     40  P    Isotropic =   296.9537   Anisotropy =    53.0290

     41  C    Isotropic =    48.4826   Anisotropy =   162.7068

     42  C    Isotropic =    47.8389   Anisotropy =   188.9040

     43  C    Isotropic =    55.0350   Anisotropy =   176.9674

     44  C    Isotropic =    55.6871   Anisotropy =   176.6689

     45  C    Isotropic =    43.9480   Anisotropy =   167.0839

     46  C    Isotropic =    20.7794   Anisotropy =   129.0836

     47  C    Isotropic =    32.3751   Anisotropy =   203.1613

     48  C    Isotropic =    51.4846   Anisotropy =   194.3966

     49  C    Isotropic =    55.2137   Anisotropy =   183.1108

     50  C    Isotropic =    55.2932   Anisotropy =   185.1191

     51  C    Isotropic =    52.8192   Anisotropy =   192.7042

     52  C    Isotropic =    46.5866   Anisotropy =   201.6080

     53  C    Isotropic =    37.4086   Anisotropy =   206.8186

     54  C    Isotropic =    36.2838   Anisotropy =   197.0767

     55  C    Isotropic =    50.4530   Anisotropy =   190.0964

     56  C    Isotropic =    51.5795   Anisotropy =   184.9392

     57  C    Isotropic =    52.4907   Anisotropy =   184.5388

     58  C    Isotropic =    41.6044   Anisotropy =   183.5623

     59  H    Isotropic =    23.7169   Anisotropy =    10.3806

     60  H    Isotropic =    23.7039   Anisotropy =     8.8863

     61  H    Isotropic =    23.9483   Anisotropy =     5.4250

     62  H    Isotropic =    29.2720   Anisotropy =     9.2362

     63  H    Isotropic =    30.0754   Anisotropy =    10.0363

     64  H    Isotropic =    24.0459   Anisotropy =    12.9950

     65  H    Isotropic =    22.8605   Anisotropy =     9.2803

     66  H    Isotropic =    26.0962   Anisotropy =     9.5221

     67  H    Isotropic =    25.1526   Anisotropy =     7.9165

     68  H    Isotropic =    24.8668   Anisotropy =     2.8906

     69  H    Isotropic =    25.3970   Anisotropy =     3.5984

     70  H    Isotropic =    25.6290   Anisotropy =    11.2425

     71  H    Isotropic =    23.6583   Anisotropy =     5.7197

     72  H    Isotropic =    23.7704   Anisotropy =     3.8426

     73  H    Isotropic =    24.0107   Anisotropy =     6.8788

     74  H    Isotropic =    24.2653   Anisotropy =     7.4212

 Normal termination of Gaussian 09 at Sat Feb 12 14:52:10 2022.
 Gaussian 09:  ES64L-G09RevE.01 30-Nov-2015

 ----------------------------------------------------------------------
 # PBE1PBE/def2TZVP int=(grid=ultrafine) empiricaldispersion=GD3BJ pop=
 nbo guess=read geom=check
 ----------------------------------------------------------------------

 ----------------
 XantPhos_5 title
 ----------------
 Structure from the checkpoint file:  "XantPhos_5_SPE_NoPd.chk"
 Charge =  0 Multiplicity = 1

                         Standard orientation:
 ---------------------------------------------------------------------
 Center     Atomic      Atomic             Coordinates (Angstroms)
 Number     Number       Type             X           Y           Z
 ---------------------------------------------------------------------
      1         15           0       -1.703742   -0.730833   -0.794689
      2          6           0       -1.922821    0.865844    0.131132
      3          6           0       -2.981260    1.077391    1.039656
      4          6           0       -3.079143    2.287425    1.738574
      5          6           0       -2.153821    3.324902    1.523143
      6          6           0       -1.125629    3.182525    0.580135
      7          6           0       -1.053513    1.946379   -0.088000
      8          8           0       -0.064712    1.767685   -1.024898
      9          6           0       -0.118116    4.272762    0.154618
     10          6           0        0.022557    5.367974    1.222571
     11          6           0       -0.628855    4.906318   -1.171204
     12          6           0       -1.486110   -2.063598    0.449402
     13          6           0       -1.753020   -1.933033    1.822061
     14          6           0       -1.675149   -3.055594    2.658004
     15          6           0       -1.339091   -4.310237    2.131064
     16          6           0       -1.055025   -4.440701    0.763049
     17          6           0       -1.118667   -3.321340   -0.075335
     18          6           0       -3.446509   -0.978902   -1.339263
     19          6           0       -4.236002   -2.039553   -0.862586
     20          6           0       -6.138785   -1.191152   -2.115073
     21          6           0       -5.580063   -2.142516   -1.253557
     22          6           0       -5.349907   -0.133184   -2.594067
     23          6           0       -4.008697   -0.027963   -2.215497
     24          1           0       -3.728986    0.292166    1.190081
     25          1           0       -2.259469    4.259501    2.082102
     26          1           0       -3.895198    2.433249    2.452840
     27          1           0        0.380284    4.958882    2.182539
     28          1           0       -0.943537    5.870896    1.392915
     29          1           0       -0.730364    4.147055   -1.963137
     30          1           0       -1.613014    5.379256   -1.011519
     31          1           0       -3.809314   -2.785404   -0.186625
     32          1           0       -7.187184   -1.274760   -2.419544
     33          1           0       -5.776898    0.605623   -3.279675
     34          1           0       -3.389037    0.780367   -2.613633
     35          1           0       -2.002676   -0.955854    2.243960
     36          1           0       -1.873477   -2.944911    3.729162
     37          1           0       -1.287851   -5.184785    2.787865
     38          1           0       -0.779537   -5.415222    0.346971
     39          1           0       -0.890314   -3.410831   -1.144374
     40         15           0        1.821288   -0.348247   -0.976132
     41          6           0        2.266402    1.440960   -0.848054
     42          6           0        3.538545    1.982681   -0.598960
     43          6           0        3.651747    3.301398   -0.131855
     44          6           0        2.511774    4.074437    0.150015
     45          6           0        1.226818    3.577667   -0.125831
     46          6           0        1.165898    2.297642   -0.691211
     47          6           0        1.606419   -0.756883    0.822952
     48          6           0        1.317152    0.205160    1.808034
     49          6           0        1.178008   -0.174851    3.151336
     50          6           0        1.333260   -1.514386    3.526746
     51          6           0        1.612632   -2.480902    2.548618
     52          6           0        1.740392   -2.108540    1.207378
     53          6           0        3.361503   -1.295745   -1.315921
     54          6           0        4.427133   -1.236938   -0.390658
     55          6           0        5.689695   -2.817860   -1.732634
     56          6           0        5.590556   -1.984689   -0.608381
     57          6           0        4.621344   -2.901894   -2.635489
     58          6           0        3.459864   -2.143129   -2.434254
     59          1           0        4.431881    1.368451   -0.741858
     60          1           0        2.633806    5.068593    0.590075
     61          1           0        4.644600    3.720781    0.057454
     62          1           0        0.729712    6.144527    0.888057
     63          1           0        0.082369    5.674696   -1.519373
     64          1           0        4.336681   -0.626626    0.513566
     65          1           0        2.636591   -2.183074   -3.151978
     66          1           0        1.225215    1.261632    1.543500
     67          1           0        0.960972    0.588616    3.905844
     68          1           0        1.233799   -1.807817    4.576900
     69          1           0        1.721432   -3.533086    2.828819
     70          1           0        1.962362   -2.869590    0.453235
     71          1           0        4.688243   -3.558576   -3.508750
     72          1           0        6.596995   -3.408144   -1.898078
     73          1           0        6.415229   -1.925330    0.109480
     74          1           0       -6.187909   -2.972810   -0.879289
 ---------------------------------------------------------------------

 SCF Done:  E(RPBE1PBE) =  -2261.88737683     A.U. after    2 cycles

 The electronic state is 1-A.
 Alpha  occ. eigenvalues --  -77.19960 -77.19617 -19.25041 -10.29383 -10.29298
 Alpha  occ. eigenvalues --  -10.26887 -10.24741 -10.24616 -10.24201 -10.24080
 Alpha  occ. eigenvalues --  -10.24049 -10.24014 -10.23864 -10.23710 -10.23701
 Alpha  occ. eigenvalues --  -10.23632 -10.23601 -10.23560 -10.23525 -10.23424
 Alpha  occ. eigenvalues --  -10.23383 -10.23364 -10.23285 -10.23274 -10.23160
 Alpha  occ. eigenvalues --  -10.23133 -10.23099 -10.23045 -10.22975 -10.22831
 Alpha  occ. eigenvalues --  -10.22656 -10.22566 -10.22505 -10.22472 -10.22425
 Alpha  occ. eigenvalues --  -10.22407 -10.22401 -10.22352 -10.22333 -10.22297
 Alpha  occ. eigenvalues --  -10.22247 -10.22176  -6.59490  -6.59174  -4.73100
 Alpha  occ. eigenvalues --   -4.73065  -4.72789  -4.72740  -4.72609  -4.72295
 Alpha  occ. eigenvalues --   -1.12098  -0.89363  -0.89095  -0.88111  -0.87801
 Alpha  occ. eigenvalues --   -0.87049  -0.86877  -0.84514  -0.79624  -0.78781
 Alpha  occ. eigenvalues --   -0.78211  -0.77010  -0.76883  -0.76589  -0.76263
 Alpha  occ. eigenvalues --   -0.76016  -0.75788  -0.75739  -0.75507  -0.74632
 Alpha  occ. eigenvalues --   -0.71574  -0.67466  -0.66599  -0.65329  -0.65140
 Alpha  occ. eigenvalues --   -0.62408  -0.62220  -0.61910  -0.61662  -0.61014
 Alpha  occ. eigenvalues --   -0.60908  -0.60823  -0.60419  -0.58066  -0.57336
 Alpha  occ. eigenvalues --   -0.56312  -0.55818  -0.52884  -0.52659  -0.51848
 Alpha  occ. eigenvalues --   -0.51241  -0.50643  -0.49665  -0.49045  -0.47819
 Alpha  occ. eigenvalues --   -0.47441  -0.46775  -0.46567  -0.46481  -0.46355
 Alpha  occ. eigenvalues --   -0.46278  -0.45765  -0.45674  -0.45480  -0.45322
 Alpha  occ. eigenvalues --   -0.45156  -0.43522  -0.43207  -0.42875  -0.42767
 Alpha  occ. eigenvalues --   -0.42651  -0.42500  -0.41968  -0.41545  -0.41213
 Alpha  occ. eigenvalues --   -0.40411  -0.40150  -0.39712  -0.39410  -0.38970
 Alpha  occ. eigenvalues --   -0.38504  -0.38395  -0.38239  -0.37953  -0.37580
 Alpha  occ. eigenvalues --   -0.36951  -0.36228  -0.35964  -0.35710  -0.35455
 Alpha  occ. eigenvalues --   -0.35292  -0.35126  -0.34795  -0.34567  -0.33440
 Alpha  occ. eigenvalues --   -0.33161  -0.32863  -0.32010  -0.29295  -0.27956
 Alpha  occ. eigenvalues --   -0.27461  -0.27163  -0.26988  -0.26622  -0.26370
 Alpha  occ. eigenvalues --   -0.25880  -0.25808  -0.25519  -0.25299  -0.24154
 Alpha  occ. eigenvalues --   -0.22117  -0.19759
 Alpha virt. eigenvalues --   -0.03590  -0.03019  -0.02305  -0.02095  -0.01772
 Alpha virt. eigenvalues --   -0.01674  -0.01194  -0.00742  -0.00489  -0.00121
 Alpha virt. eigenvalues --    0.00280   0.00512   0.03786   0.04647   0.05253

 Mulliken charges:
               1
     1  P    0.073677
     2  C   -0.155565
     3  C   -0.171296
     4  C   -0.163452
     5  C   -0.173309
     6  C   -0.025432
     7  C    0.240033
     8  O   -0.236139
     9  C    0.306160
    10  C   -0.446256
    11  C   -0.404712
    12  C    0.052568
    13  C   -0.087615
    14  C   -0.146629
    15  C   -0.126072
    16  C   -0.118954
    17  C   -0.175806
    18  C    0.087466
    19  C   -0.166129
    20  C   -0.108720
    21  C   -0.156851
    22  C   -0.122226
    23  C   -0.191122
    24  H    0.165680
    25  H    0.116800
    26  H    0.114734
    27  H    0.150072
    28  H    0.133119
    29  H    0.151939
    30  H    0.127532
    31  H    0.150332
    32  H    0.114508
    33  H    0.114322
    34  H    0.119536
    35  H    0.150975
    36  H    0.107710
    37  H    0.114573
    38  H    0.117038
    39  H    0.120368
    40  P    0.115144
    41  C   -0.095725
    42  C   -0.144503
    43  C   -0.150886
    44  C   -0.182204
    45  C   -0.002719
    46  C    0.122371
    47  C   -0.066571
    48  C   -0.022735
    49  C   -0.256259
    50  C   -0.076279
    51  C   -0.139477
    52  C   -0.056551
    53  C    0.097450
    54  C   -0.210613
    55  C   -0.099585
    56  C   -0.146573
    57  C   -0.118517
    58  C   -0.216712
    59  H    0.153105
    60  H    0.117595
    61  H    0.115208
    62  H    0.133797
    63  H    0.126054
    64  H    0.177086
    65  H    0.131252
    66  H    0.128398
    67  H    0.107269
    68  H    0.107473
    69  H    0.105306
    70  H    0.124706
    71  H    0.119250
    72  H    0.120285
    73  H    0.117923
    74  H    0.113376
 Sum of Mulliken charges =  -0.00000

 Dipole moment (field-independent basis, Debye):
    X=              0.7731    Y=              0.9871    Z=              2.4329  Tot=              2.7370
 Quadrupole moment (field-independent basis, Debye-Ang):
   XX=           -244.9144   YY=           -231.0732   ZZ=           -252.9449
   XY=             -4.8592   XZ=             -3.3075   YZ=              2.8137

 Summary of Natural Population Analysis:

                                       Natural Population
                Natural  -----------------------------------------------
    Atom  No    Charge         Core      Valence    Rydberg      Total
 -----------------------------------------------------------------------
      P    1    0.84578      9.99785     4.12743    0.02894    14.15422
      C    2   -0.34565      1.99887     4.31632    0.03046     6.34565
      C    3   -0.18916      1.99913     4.17113    0.01889     6.18916
      C    4   -0.23009      1.99923     4.21319    0.01767     6.23009
      C    5   -0.19277      1.99913     4.17622    0.01743     6.19277
      C    6   -0.06519      1.99892     4.04560    0.02067     6.06519
      C    7    0.29135      1.99861     3.68634    0.02370     5.70865
      O    8   -0.45845      1.99972     6.43514    0.02359     8.45845
      C    9   -0.07417      1.99930     4.05659    0.01828     6.07417
      C   10   -0.61605      1.99943     4.60379    0.01282     6.61605
      C   11   -0.60146      1.99940     4.59034    0.01172     6.60146
      C   12   -0.32212      1.99905     4.28911    0.03396     6.32212
      C   13   -0.20999      1.99907     4.19008    0.02085     6.20999
      C   14   -0.20523      1.99921     4.18690    0.01912     6.20523
      C   15   -0.21935      1.99921     4.20155    0.01858     6.21935
      C   16   -0.21807      1.99920     4.20042    0.01844     6.21807
      C   17   -0.21499      1.99911     4.19663    0.01926     6.21499
      C   18   -0.31300      1.99905     4.28312    0.03084     6.31300
      C   19   -0.22623      1.99910     4.20782    0.01930     6.22623
      C   20   -0.22370      1.99922     4.20593    0.01855     6.22370
      C   21   -0.20875      1.99921     4.19151    0.01803     6.20875
      C   22   -0.20879      1.99921     4.19171    0.01787     6.20879
      C   23   -0.21228      1.99911     4.19395    0.01922     6.21228
      H   24    0.23095      0.00000     0.76713    0.00192     0.76905
      H   25    0.21936      0.00000     0.77925    0.00139     0.78064
      H   26    0.21986      0.00000     0.77895    0.00120     0.78014
      H   27    0.22343      0.00000     0.77556    0.00102     0.77657
      H   28    0.21799      0.00000     0.78092    0.00109     0.78201
      H   29    0.22666      0.00000     0.77242    0.00092     0.77334
      H   30    0.21486      0.00000     0.78411    0.00103     0.78514
      H   31    0.22937      0.00000     0.76866    0.00197     0.77063
      H   32    0.21595      0.00000     0.78287    0.00117     0.78405
      H   33    0.21654      0.00000     0.78221    0.00125     0.78346
      H   34    0.22053      0.00000     0.77784    0.00164     0.77947
      H   35    0.22949      0.00000     0.76781    0.00270     0.77051
      H   36    0.21811      0.00000     0.78053    0.00136     0.78189
      H   37    0.21743      0.00000     0.78139    0.00119     0.78257
      H   38    0.21911      0.00000     0.77964    0.00125     0.78089
      H   39    0.22966      0.00000     0.76884    0.00149     0.77034
      P   40    0.84109      9.99787     4.13128    0.02976    14.15891
      C   41   -0.34338      1.99885     4.31414    0.03039     6.34338
      C   42   -0.19379      1.99912     4.17610    0.01857     6.19379
      C   43   -0.22003      1.99923     4.20335    0.01744     6.22003
      C   44   -0.20108      1.99913     4.18452    0.01743     6.20108
      C   45   -0.05983      1.99890     4.03993    0.02100     6.05983
      C   46    0.28443      1.99859     3.69359    0.02340     5.71557
      C   47   -0.30853      1.99901     4.27749    0.03203     6.30853
      C   48   -0.23170      1.99908     4.21256    0.02006     6.23170
      C   49   -0.21346      1.99920     4.19588    0.01838     6.21346
      C   50   -0.22058      1.99921     4.20326    0.01811     6.22058
      C   51   -0.20632      1.99920     4.18819    0.01893     6.20632
      C   52   -0.21304      1.99909     4.19335    0.02060     6.21304
      C   53   -0.33751      1.99905     4.30789    0.03057     6.33751
      C   54   -0.20215      1.99911     4.18325    0.01979     6.20215
      C   55   -0.20484      1.99922     4.18761    0.01801     6.20484
      C   56   -0.21769      1.99921     4.20014    0.01835     6.21769
      C   57   -0.21740      1.99921     4.19982    0.01836     6.21740
      C   58   -0.19650      1.99913     4.17803    0.01934     6.19650
      H   59    0.22933      0.00000     0.76899    0.00168     0.77067
      H   60    0.22059      0.00000     0.77801    0.00139     0.77941
      H   61    0.21983      0.00000     0.77899    0.00118     0.78017
      H   62    0.21765      0.00000     0.78127    0.00108     0.78235
      H   63    0.21458      0.00000     0.78439    0.00103     0.78542
      H   64    0.22871      0.00000     0.76897    0.00232     0.77129
      H   65    0.22853      0.00000     0.77001    0.00146     0.77147
      H   66    0.22444      0.00000     0.77338    0.00217     0.77556
      H   67    0.21637      0.00000     0.78238    0.00125     0.78363
      H   68    0.21542      0.00000     0.78338    0.00120     0.78458
      H   69    0.21815      0.00000     0.78035    0.00150     0.78185
      H   70    0.22650      0.00000     0.77136    0.00215     0.77350
      H   71    0.21906      0.00000     0.77972    0.00122     0.78094
      H   72    0.21846      0.00000     0.78037    0.00117     0.78154
      H   73    0.21807      0.00000     0.78062    0.00132     0.78193
      H   74    0.21572      0.00000     0.78301    0.00127     0.78428
 =======================================================================
   * Total *   -0.00000     99.96074   203.10454    0.93472   304.00000

 Normal termination of Gaussian 09 at Sat Feb 12 15:06:24 2022.
