 Gaussian 09, Revision E.01,

 ----------------------------------------------------------------------
 # PBE1PBE gen pseudo=read int=(grid=ultrafine) empiricaldispersion=GD3
 BJ nmr=giao
 ----------------------------------------------------------------------

 ----------------
 XantPhos_3 title
 ----------------
 Symbolic Z-matrix:
 Charge =  0 Multiplicity = 1

 SCF Done:  E(RPBE1PBE) =  -3310.06429351     A.U. after   25 cycles

      1  P    Isotropic =   259.3166   Anisotropy =    70.9587

      2  C    Isotropic =    54.9694   Anisotropy =   152.1072

      3  C    Isotropic =    43.6601   Anisotropy =   190.5792

      4  C    Isotropic =    56.1827   Anisotropy =   176.2708

      5  C    Isotropic =    52.6809   Anisotropy =   181.3611

      6  C    Isotropic =    42.5872   Anisotropy =   168.5708

      7  C    Isotropic =    18.7121   Anisotropy =   131.7697

      8  O    Isotropic =   150.8346   Anisotropy =   215.8308

      9  C    Isotropic =   143.0066   Anisotropy =     9.0899

     10  C    Isotropic =   162.6116   Anisotropy =    30.2906

     11  C    Isotropic =   154.5582   Anisotropy =    42.9549

     12  C    Isotropic =    44.3521   Anisotropy =   184.7907

     13  C    Isotropic =    41.4775   Anisotropy =   202.8841

     14  C    Isotropic =    51.3866   Anisotropy =   196.5968

     15  C    Isotropic =    49.6908   Anisotropy =   194.7476

     16  C    Isotropic =    53.1879   Anisotropy =   186.0446

     17  C    Isotropic =    50.6657   Anisotropy =   192.1276

     18  C    Isotropic =    47.3150   Anisotropy =   174.6973

     19  C    Isotropic =    38.3124   Anisotropy =   204.1203

     20  C    Isotropic =    49.9429   Anisotropy =   189.5914

     21  C    Isotropic =    53.8315   Anisotropy =   183.3189

     22  C    Isotropic =    53.4985   Anisotropy =   181.7151

     23  C    Isotropic =    47.0691   Anisotropy =   194.4647

     24  H    Isotropic =    24.6419   Anisotropy =    13.4988

     25  H    Isotropic =    23.6018   Anisotropy =     8.7105

     26  H    Isotropic =    24.0741   Anisotropy =     5.9877

     27  H    Isotropic =    29.9656   Anisotropy =     9.5056

     28  H    Isotropic =    29.3191   Anisotropy =     9.4941

     29  H    Isotropic =    29.2407   Anisotropy =     6.2226

     30  H    Isotropic =    30.0999   Anisotropy =    10.0599

     31  H    Isotropic =    22.9008   Anisotropy =    11.7213

     32  H    Isotropic =    23.8151   Anisotropy =     3.4362

     33  H    Isotropic =    24.1040   Anisotropy =     7.5218

     34  H    Isotropic =    24.7574   Anisotropy =    15.5995

     35  H    Isotropic =    23.2338   Anisotropy =     9.4295

     36  H    Isotropic =    24.7957   Anisotropy =     4.9246

     37  H    Isotropic =    24.2350   Anisotropy =     3.1973

     38  H    Isotropic =    24.5484   Anisotropy =     7.0518

     39  H    Isotropic =    25.9363   Anisotropy =    12.6044

     40  P    Isotropic =   259.2546   Anisotropy =   100.7017

     41  C    Isotropic =    58.7440   Anisotropy =   159.3542

     42  C    Isotropic =    43.1633   Anisotropy =   193.6176

     43  C    Isotropic =    57.3066   Anisotropy =   175.5763

     44  C    Isotropic =    54.2432   Anisotropy =   179.3375

     45  C    Isotropic =    43.5145   Anisotropy =   168.8742

     46  C    Isotropic =    21.2668   Anisotropy =   126.8523

     47  C    Isotropic =    45.8140   Anisotropy =   187.5544

     48  C    Isotropic =    48.0691   Anisotropy =   199.9904

     49  C    Isotropic =    51.2080   Anisotropy =   190.9855

     50  C    Isotropic =    50.3998   Anisotropy =   191.5934

     51  C    Isotropic =    50.9093   Anisotropy =   190.2647

     52  C    Isotropic =    41.5871   Anisotropy =   209.2456

     53  C    Isotropic =    35.3585   Anisotropy =   192.3059

     54  C    Isotropic =    42.1806   Anisotropy =   194.2287

     55  C    Isotropic =    51.1941   Anisotropy =   187.2543

     56  C    Isotropic =    51.4977   Anisotropy =   186.0474

     57  C    Isotropic =    53.4586   Anisotropy =   181.6914

     58  C    Isotropic =    50.4591   Anisotropy =   186.3565

     59  H    Isotropic =    24.2831   Anisotropy =    11.1955

     60  H    Isotropic =    23.8685   Anisotropy =     8.7492

     61  H    Isotropic =    24.2734   Anisotropy =     5.7433

     62  H    Isotropic =    29.3513   Anisotropy =     9.4054

     63  H    Isotropic =    30.2296   Anisotropy =     9.6183

     64  H    Isotropic =    22.9933   Anisotropy =    11.8666

     65  H    Isotropic =    24.4425   Anisotropy =    14.2909

     66  H    Isotropic =    25.2865   Anisotropy =     9.6656

     67  H    Isotropic =    24.4497   Anisotropy =     5.7645

     68  H    Isotropic =    23.7732   Anisotropy =     3.0272

     69  H    Isotropic =    23.5787   Anisotropy =     6.1878

     70  H    Isotropic =    21.6523   Anisotropy =    12.4748

     71  H    Isotropic =    24.1101   Anisotropy =     6.9567

     72  H    Isotropic =    23.9750   Anisotropy =     3.3601

     73  H    Isotropic =    23.8599   Anisotropy =     7.0592

     74  H    Isotropic =    23.7175   Anisotropy =     6.5248

     75  Pd   Isotropic =  -232.3842   Anisotropy =   306.5331

     76  Cl   Isotropic =   850.0790   Anisotropy =   443.0883

     77  Cl   Isotropic =   818.7295   Anisotropy =   409.0468

 1\1\GINC-NC028\SP\RPBE1PBE\Gen\C39H32Cl2O1P2Pd1\MACKK4\06-Dec-2021\0\\
 # PBE1PBE gen pseudo=read int=(grid=ultrafine) empiricaldispersion=GD3
 BJ nmr=giao\\XantPhos_3 title\\0,1\P,0,-1.6139528776,1.791583568,-3.51
 25859433\C,0,-1.9754467492,2.5996872747,-1.8906202983\C,0,-3.239713943
 5,3.110705866,-1.5343520048\C,0,-3.5079026344,3.4360874732,-0.19777842
 17\C,0,-2.54513357,3.2244697988,0.8045401652\C,0,-1.2679645176,2.74169
 01409,0.4802425628\C,0,-1.0154165964,2.4934143572,-0.878226027\O,0,0.2
 228811771,2.0252362747,-1.2647567123\C,0,-0.1287344101,2.4299480469,1.

 Normal termination of Gaussian 09 at Mon Dec  6 04:34:34 2021.
 Gaussian 09:  ES64L-G09RevE.01 30-Nov-2015

 ----------------------------------------------------------------------
 # PBE1PBE gen pseudo=read int=(grid=ultrafine) empiricaldispersion=GD3
 BJ pop=nbo guess=read geom=check
 ----------------------------------------------------------------------

 ----------------
 XantPhos_3 title
 ----------------
 Structure from the checkpoint file:  "XantPhos_3_SPE.chk"
 Charge =  0 Multiplicity = 1

                         Standard orientation:
 ---------------------------------------------------------------------
 Center     Atomic      Atomic             Coordinates (Angstroms)
 Number     Number       Type             X           Y           Z
 ---------------------------------------------------------------------
      1         15           0       -1.893564   -0.345186   -0.170686
      2          6           0       -2.336648    1.445706   -0.274921
      3          6           0       -3.610566    1.957523    0.043849
      4          6           0       -3.782080    3.336955    0.222677
      5          6           0       -2.691690    4.219080    0.126488
      6          6           0       -1.415485    3.745606   -0.214877
      7          6           0       -1.298999    2.367168   -0.454041
      8          8           0       -0.073365    1.838900   -0.801507
      9          6           0       -0.128003    4.577901   -0.324753
     10          6           0       -0.250438    5.922653    0.406958
     11          6           0        0.168008    4.837991   -1.829521
     12          6           0       -1.582361   -0.585643    1.627228
     13          6           0       -1.188815   -1.879250    2.034304
     14          6           0       -1.010680   -2.163768    3.391994
     15          6           0       -1.183965   -1.153446    4.350311
     16          6           0       -1.538739    0.140607    3.946810
     17          6           0       -1.748157    0.426516    2.589249
     18          6           0       -3.555539   -1.092354   -0.425614
     19          6           0       -4.200261   -0.869900   -1.661106
     20          6           0       -6.148903   -2.084783   -0.867430
     21          6           0       -5.493014   -1.358738   -1.873742
     22          6           0       -5.509185   -2.312115    0.357035
     23          6           0       -4.216749   -1.814621    0.582556
     24          1           0       -4.449902    1.270700    0.183850
     25          1           0       -2.844215    5.283676    0.327143
     26          1           0       -4.771925    3.728752    0.475940
     27          1           0       -0.459519    5.786323    1.481361
     28          1           0       -1.058347    6.529979   -0.033240
     29          1           0        0.258459    3.892532   -2.387651
     30          1           0       -0.648197    5.429419   -2.278599
     31          1           0       -3.685062   -0.322361   -2.454570
     32          1           0       -7.157589   -2.473718   -1.040691
     33          1           0       -6.015211   -2.875495    1.147814
     34          1           0       -3.730776   -1.986595    1.546628
     35          1           0       -1.021412   -2.655211    1.278424
     36          1           0       -0.703655   -3.168234    3.697632
     37          1           0       -1.028214   -1.373489    5.411442
     38          1           0       -1.664118    0.933854    4.691347
     39          1           0       -2.048225    1.432683    2.281941
     40         15           0        1.777665   -0.385782   -0.088735
     41          6           0        1.924299    1.405752    0.382389
     42          6           0        3.026232    1.910237    1.105523
     43          6           0        3.097353    3.270761    1.424603
     44          6           0        2.090015    4.161845    1.013039
     45          6           0        1.006573    3.709115    0.248658
     46          6           0        0.973390    2.334270   -0.050978
     47          6           0        2.052461   -1.290004    1.487057
     48          6           0        2.040537   -0.666517    2.747610
     49          6           0        2.252696   -1.425271    3.907136
     50          6           0        2.470941   -2.806285    3.818618
     51          6           0        2.459227   -3.434762    2.563134
     52          6           0        2.245365   -2.686790    1.399577
     53          6           0        3.388306   -0.498940   -0.978435
     54          6           0        3.439258   -0.048416   -2.311423
     55          6           0        5.844505   -0.386588   -2.333450
     56          6           0        4.664147    0.010238   -2.982197
     57          6           0        5.793546   -0.842122   -1.010366
     58          6           0        4.568552   -0.896160   -0.328066
     59          1           0        3.823585    1.230811    1.420940
     60          1           0        2.166692    5.219311    1.282538
     61          1           0        3.949647    3.646934    1.998647
     62          1           0        0.678825    6.506262    0.301833
     63          1           0        1.112775    5.397563   -1.937769
     64          1           0        2.512764    0.222566   -2.828101
     65          1           0        4.531998   -1.263395    0.702159
     66          1           0        1.851816    0.406958    2.830470
     67          1           0        2.237043   -0.931083    4.884096
     68          1           0        2.640766   -3.394959    4.726312
     69          1           0        2.616724   -4.515620    2.486479
     70          1           0        2.220881   -3.172466    0.416582
     71          1           0        6.708891   -1.164783   -0.503092
     72          1           0        6.801211   -0.348773   -2.864376
     73          1           0        4.695600    0.349948   -4.022444
     74          1           0       -5.983979   -1.184606   -2.836449
     75         46           0       -0.057567   -1.298064   -1.276567
     76         17           0        1.591403   -2.787127   -2.142743
     77         17           0       -1.606383   -2.352515   -2.709989
 ---------------------------------------------------------------------

 SCF Done:  E(RPBE1PBE) =  -3310.06429352     A.U. after    2 cycles

 The electronic state is 1-A.
 Alpha  occ. eigenvalues -- -101.61246-101.61131 -77.26468 -77.26269 -19.27147
 Alpha  occ. eigenvalues --  -10.31416 -10.31367 -10.28292 -10.26526 -10.26468
 Alpha  occ. eigenvalues --  -10.26384 -10.26375 -10.25954 -10.25940 -10.25731
 Alpha  occ. eigenvalues --  -10.25723 -10.25719 -10.25644 -10.25173 -10.25064
 Alpha  occ. eigenvalues --  -10.25043 -10.24984 -10.24817 -10.24805 -10.24783
 Alpha  occ. eigenvalues --  -10.24717 -10.24684 -10.24542 -10.24475 -10.24395
 Alpha  occ. eigenvalues --  -10.24199 -10.24094 -10.23968 -10.23893 -10.23710
 Alpha  occ. eigenvalues --  -10.23628 -10.23579 -10.23440 -10.23375 -10.23371
 Alpha  occ. eigenvalues --  -10.23312 -10.23274 -10.23254 -10.23081  -9.43756
 Alpha  occ. eigenvalues --   -9.43634  -7.16970  -7.16873  -7.16481  -7.16412
 Alpha  occ. eigenvalues --   -7.16346  -7.16276  -6.65632  -6.65436  -4.79256
 Alpha  occ. eigenvalues --   -4.79205  -4.79071  -4.78988  -4.78936  -4.78743
 Alpha  occ. eigenvalues --   -3.51223  -2.19065  -2.18784  -2.15425  -1.14151
 Alpha  occ. eigenvalues --   -0.91271  -0.91096  -0.89723  -0.89144  -0.88316
 Alpha  occ. eigenvalues --   -0.88029  -0.86347  -0.81795  -0.80877  -0.80048
 Alpha  occ. eigenvalues --   -0.78638  -0.78294  -0.78034  -0.77724  -0.77245
 Alpha  occ. eigenvalues --   -0.77033  -0.76995  -0.76767  -0.76488  -0.74087
 Alpha  occ. eigenvalues --   -0.73131  -0.72944  -0.69654  -0.69086  -0.67315
 Alpha  occ. eigenvalues --   -0.67227  -0.64065  -0.63686  -0.63207  -0.62867
 Alpha  occ. eigenvalues --   -0.62483  -0.62247  -0.62151  -0.61802  -0.59956
 Alpha  occ. eigenvalues --   -0.59092  -0.58083  -0.57745  -0.54412  -0.53954
 Alpha  occ. eigenvalues --   -0.53618  -0.52764  -0.52374  -0.51344  -0.50761
 Alpha  occ. eigenvalues --   -0.49782  -0.49338  -0.48387  -0.48051  -0.47987
 Alpha  occ. eigenvalues --   -0.47778  -0.47692  -0.47216  -0.47012  -0.46670
 Alpha  occ. eigenvalues --   -0.46604  -0.46399  -0.45019  -0.44695  -0.44640
 Alpha  occ. eigenvalues --   -0.44398  -0.43888  -0.43659  -0.43526  -0.43401
 Alpha  occ. eigenvalues --   -0.42986  -0.41834  -0.41796  -0.41532  -0.41222
 Alpha  occ. eigenvalues --   -0.41124  -0.40693  -0.40160  -0.39922  -0.39242
 Alpha  occ. eigenvalues --   -0.38854  -0.38398  -0.38217  -0.38001  -0.37417
 Alpha  occ. eigenvalues --   -0.37362  -0.36776  -0.36608  -0.36482  -0.36406
 Alpha  occ. eigenvalues --   -0.35919  -0.35745  -0.35438  -0.35235  -0.34843
 Alpha  occ. eigenvalues --   -0.34457  -0.32880  -0.31348  -0.30714  -0.30466
 Alpha  occ. eigenvalues --   -0.29854  -0.29462  -0.28835  -0.28404  -0.28007
 Alpha  occ. eigenvalues --   -0.27900  -0.27323  -0.27150  -0.26988  -0.26756
 Alpha  occ. eigenvalues --   -0.26330  -0.25803  -0.25688  -0.25079  -0.24325
 Alpha  occ. eigenvalues --   -0.23711  -0.23088  -0.22508
 Alpha virt. eigenvalues --   -0.07906  -0.05711  -0.04502  -0.03717  -0.03646
 Alpha virt. eigenvalues --   -0.03485  -0.02823  -0.02336  -0.01937  -0.01917
 Alpha virt. eigenvalues --   -0.01206  -0.00868  -0.00490   0.01187   0.01369

 Mulliken charges:
               1
     1  P    0.245165
     2  C   -0.242171
     3  C   -0.107939
     4  C   -0.156326
     5  C   -0.167218
     6  C    0.007195
     7  C    0.217008
     8  O   -0.258346
     9  C    0.262997
    10  C   -0.445833
    11  C   -0.411169
    12  C   -0.006371
    13  C   -0.165596
    14  C   -0.054627
    15  C   -0.107863
    16  C   -0.168113
    17  C   -0.131132
    18  C    0.100235
    19  C   -0.178177
    20  C   -0.096595
    21  C   -0.112890
    22  C   -0.164079
    23  C   -0.143023
    24  H    0.164311
    25  H    0.124422
    26  H    0.124364
    27  H    0.152674
    28  H    0.138078
    29  H    0.159919
    30  H    0.129893
    31  H    0.142729
    32  H    0.120428
    33  H    0.118412
    34  H    0.150435
    35  H    0.189769
    36  H    0.126124
    37  H    0.117364
    38  H    0.118178
    39  H    0.154313
    40  P    0.162109
    41  C   -0.132731
    42  C   -0.191302
    43  C   -0.118148
    44  C   -0.190345
    45  C    0.010505
    46  C    0.224849
    47  C    0.045304
    48  C   -0.083648
    49  C   -0.155605
    50  C   -0.118545
    51  C   -0.130686
    52  C   -0.170305
    53  C    0.179250
    54  C   -0.185489
    55  C   -0.102802
    56  C   -0.118411
    57  C   -0.145438
    58  C   -0.209030
    59  H    0.139582
    60  H    0.123602
    61  H    0.123639
    62  H    0.137890
    63  H    0.131246
    64  H    0.148582
    65  H    0.152196
    66  H    0.161296
    67  H    0.113428
    68  H    0.120708
    69  H    0.130667
    70  H    0.161304
    71  H    0.117475
    72  H    0.118936
    73  H    0.120204
    74  H    0.123009
    75  Pd   0.153943
    76  Cl  -0.390843
    77  Cl  -0.402945
 Sum of Mulliken charges =  -0.00000

 Dipole moment (field-independent basis, Debye):
    X=             -0.2128    Y=              8.6855    Z=              8.7365  Tot=             12.3211
 Quadrupole moment (field-independent basis, Debye-Ang):
   XX=           -274.1264   YY=           -289.2687   ZZ=           -298.5084
   XY=             -1.2252   XZ=              2.0995   YZ=            -25.1355

 Summary of Natural Population Analysis:

                                       Natural Population
                Natural  -----------------------------------------------
    Atom  No    Charge         Core      Valence    Rydberg      Total
 -----------------------------------------------------------------------
      P    1    1.15438      9.99587     3.79782    0.05193    13.84562
      C    2   -0.37650      1.99886     4.34392    0.03372     6.37650
      C    3   -0.18247      1.99912     4.16409    0.01927     6.18247
      C    4   -0.22136      1.99923     4.20473    0.01741     6.22136
      C    5   -0.18714      1.99913     4.17083    0.01717     6.18714
      C    6   -0.05313      1.99893     4.03381    0.02040     6.05313
      C    7    0.29520      1.99859     3.68308    0.02313     5.70480
      O    8   -0.44955      1.99973     6.42478    0.02505     8.44955
      C    9   -0.07501      1.99929     4.05784    0.01788     6.07501
      C   10   -0.61761      1.99944     4.60534    0.01284     6.61761
      C   11   -0.60180      1.99940     4.59070    0.01170     6.60180
      C   12   -0.35283      1.99902     4.31990    0.03391     6.35283
      C   13   -0.20072      1.99909     4.18229    0.01934     6.20072
      C   14   -0.20387      1.99920     4.18577    0.01890     6.20387
      C   15   -0.20006      1.99921     4.18316    0.01769     6.20006
      C   16   -0.21382      1.99921     4.19699    0.01762     6.21382
      C   17   -0.20956      1.99910     4.19138    0.01908     6.20956
      C   18   -0.33929      1.99901     4.30477    0.03552     6.33929
      C   19   -0.17348      1.99910     4.15453    0.01985     6.17348
      C   20   -0.19858      1.99922     4.18131    0.01806     6.19858
      C   21   -0.21395      1.99921     4.19667    0.01807     6.21395
      C   22   -0.21573      1.99921     4.19860    0.01792     6.21573
      C   23   -0.20742      1.99910     4.18886    0.01946     6.20742
      H   24    0.24289      0.00000     0.75546    0.00166     0.75711
      H   25    0.22426      0.00000     0.77437    0.00137     0.77574
      H   26    0.22621      0.00000     0.77265    0.00114     0.77379
      H   27    0.22352      0.00000     0.77546    0.00103     0.77648
      H   28    0.22014      0.00000     0.77881    0.00105     0.77986
      H   29    0.22847      0.00000     0.77062    0.00092     0.77153
      H   30    0.21706      0.00000     0.78194    0.00100     0.78294
      H   31    0.23936      0.00000     0.75903    0.00161     0.76064
      H   32    0.21949      0.00000     0.77935    0.00116     0.78051
      H   33    0.22009      0.00000     0.77867    0.00124     0.77991
      H   34    0.23022      0.00000     0.76793    0.00185     0.76978
      H   35    0.24569      0.00000     0.75233    0.00199     0.75431
      H   36    0.22768      0.00000     0.77083    0.00149     0.77232
      H   37    0.22069      0.00000     0.77810    0.00121     0.77931
      H   38    0.22096      0.00000     0.77780    0.00125     0.77904
      H   39    0.23079      0.00000     0.76715    0.00206     0.76921
      P   40    1.13903      9.99599     3.81191    0.05306    13.86097
      C   41   -0.37025      1.99886     4.33871    0.03269     6.37025
      C   42   -0.18049      1.99912     4.16191    0.01947     6.18049
      C   43   -0.22217      1.99922     4.20536    0.01758     6.22217
      C   44   -0.18671      1.99913     4.17052    0.01706     6.18671
      C   45   -0.05413      1.99893     4.03501    0.02019     6.05413
      C   46    0.28950      1.99860     3.68879    0.02311     5.71050
      C   47   -0.35805      1.99903     4.32388    0.03514     6.35805
      C   48   -0.20811      1.99909     4.18797    0.02106     6.20811
      C   49   -0.21198      1.99921     4.19374    0.01904     6.21198
      C   50   -0.20716      1.99921     4.18962    0.01833     6.20716
      C   51   -0.21321      1.99921     4.19591    0.01809     6.21321
      C   52   -0.20294      1.99912     4.18444    0.01938     6.20294
      C   53   -0.31123      1.99900     4.27626    0.03597     6.31123
      C   54   -0.18338      1.99908     4.16503    0.01927     6.18338
      C   55   -0.20487      1.99922     4.18754    0.01811     6.20487
      C   56   -0.20431      1.99921     4.18724    0.01785     6.20431
      C   57   -0.20957      1.99921     4.19246    0.01790     6.20957
      C   58   -0.22170      1.99909     4.20291    0.01971     6.22170
      H   59    0.23518      0.00000     0.76284    0.00199     0.76482
      H   60    0.22328      0.00000     0.77536    0.00136     0.77672
      H   61    0.22516      0.00000     0.77374    0.00110     0.77484
      H   62    0.22068      0.00000     0.77827    0.00106     0.77932
      H   63    0.21752      0.00000     0.78148    0.00100     0.78248
      H   64    0.23266      0.00000     0.76566    0.00169     0.76734
      H   65    0.22703      0.00000     0.77102    0.00195     0.77297
      H   66    0.23208      0.00000     0.76558    0.00234     0.76792
      H   67    0.22107      0.00000     0.77764    0.00129     0.77893
      H   68    0.22021      0.00000     0.77860    0.00118     0.77979
      H   69    0.22575      0.00000     0.77307    0.00118     0.77425
      H   70    0.26681      0.00000     0.73167    0.00151     0.73319
      H   71    0.21889      0.00000     0.77986    0.00125     0.78111
      H   72    0.21883      0.00000     0.78001    0.00116     0.78117
      H   73    0.22171      0.00000     0.77706    0.00123     0.77829
      H   74    0.22297      0.00000     0.77578    0.00124     0.77703
     Pd   75   -0.12057     35.99052    10.10582    0.02422    46.12057
     Cl   76   -0.40250      9.99963     7.39358    0.00929    17.40250
     Cl   77   -0.37822      9.99962     7.36933    0.00927    17.37822
 =======================================================================
   * Total *    0.00000    155.94655   227.01723    1.03622   384.00000

 1\1\GINC-NC028\SP\RPBE1PBE\Gen\C39H32Cl2O1P2Pd1\MACKK4\06-Dec-2021\0\\
 # PBE1PBE gen pseudo=read int=(grid=ultrafine) empiricaldispersion=GD3
 BJ pop=nbo guess=read geom=check\\XantPhos_3 title\\0,1\P,0,-1.6139528
 776,1.791583568,-3.5125859433\C,0,-1.9754467492,2.5996872747,-1.890620
 2983\C,0,-3.2397139435,3.110705866,-1.5343520048\C,0,-3.5079026344,3.4
 360874732,-0.1977784217\C,0,-2.54513357,3.2244697988,0.8045401652\C,0,
 -1.2679645176,2.7416901409,0.4802425628\C,0,-1.0154165964,2.4934143572
 ,-0.878226027\O,0,0.2228811771,2.0252362747,-1.2647567123\C,0,-0.12873

 Normal termination of Gaussian 09 at Mon Dec  6 04:45:09 2021.
