 Gaussian 09, Revision E.01,

 ----------------------------------------------------------------------
 # PBE1PBE gen pseudo=read int=(grid=ultrafine) empiricaldispersion=GD3
 BJ nmr=giao
 ----------------------------------------------------------------------

 ----------------
 XantPhos_5 title
 ----------------
 Symbolic Z-matrix:
 Charge =  0 Multiplicity = 1

 SCF Done:  E(RPBE1PBE) =  -3310.06347341     A.U. after   24 cycles

      1  P    Isotropic =   248.6482   Anisotropy =   109.7195

      2  C    Isotropic =    58.1629   Anisotropy =   150.7237

      3  C    Isotropic =    43.0578   Anisotropy =   191.8193

      4  C    Isotropic =    57.1223   Anisotropy =   175.3123

      5  C    Isotropic =    52.6349   Anisotropy =   181.8434

      6  C    Isotropic =    43.6459   Anisotropy =   170.3384

      7  C    Isotropic =    19.7149   Anisotropy =   132.3308

      8  O    Isotropic =   143.4062   Anisotropy =   210.7866

      9  C    Isotropic =   142.0854   Anisotropy =     8.6751

     10  C    Isotropic =   162.6005   Anisotropy =    30.6020

     11  C    Isotropic =   153.5337   Anisotropy =    43.8326

     12  C    Isotropic =    45.6663   Anisotropy =   192.4442

     13  C    Isotropic =    48.9434   Anisotropy =   201.7620

     14  C    Isotropic =    50.1383   Anisotropy =   193.8501

     15  C    Isotropic =    50.1526   Anisotropy =   192.6984

     16  C    Isotropic =    51.2419   Anisotropy =   189.6164

     17  C    Isotropic =    43.2736   Anisotropy =   194.5144

     18  C    Isotropic =    41.6387   Anisotropy =   179.8170

     19  C    Isotropic =    47.9291   Anisotropy =   192.1510

     20  C    Isotropic =    50.2955   Anisotropy =   188.3333

     21  C    Isotropic =    54.1768   Anisotropy =   180.0644

     22  C    Isotropic =    53.1475   Anisotropy =   184.0446

     23  C    Isotropic =    39.4218   Anisotropy =   203.5241

     24  H    Isotropic =    24.5057   Anisotropy =    10.6993

     25  H    Isotropic =    23.6186   Anisotropy =     8.7246

     26  H    Isotropic =    24.1377   Anisotropy =     5.3928

     27  H    Isotropic =    29.8606   Anisotropy =     9.4115

     28  H    Isotropic =    29.2418   Anisotropy =     9.4688

     29  H    Isotropic =    29.1271   Anisotropy =     6.1813

     30  H    Isotropic =    30.1407   Anisotropy =     9.8293

     31  H    Isotropic =    25.2646   Anisotropy =    15.9855

     32  H    Isotropic =    23.9714   Anisotropy =     3.3041

     33  H    Isotropic =    23.9388   Anisotropy =     7.2351

     34  H    Isotropic =    23.3133   Anisotropy =    12.0456

     35  H    Isotropic =    24.9333   Anisotropy =     9.3007

     36  H    Isotropic =    24.3443   Anisotropy =     5.6893

     37  H    Isotropic =    23.8714   Anisotropy =     2.7565

     38  H    Isotropic =    23.7471   Anisotropy =     6.3076

     39  H    Isotropic =    22.5370   Anisotropy =    11.3276

     40  P    Isotropic =   251.5034   Anisotropy =    99.8398

     41  C    Isotropic =    52.7791   Anisotropy =   154.0606

     42  C    Isotropic =    48.8924   Anisotropy =   187.4728

     43  C    Isotropic =    54.8997   Anisotropy =   177.9470

     44  C    Isotropic =    53.9687   Anisotropy =   179.4454

     45  C    Isotropic =    43.8295   Anisotropy =   167.5387

     46  C    Isotropic =    21.8716   Anisotropy =   130.0572

     47  C    Isotropic =    38.0168   Anisotropy =   190.7255

     48  C    Isotropic =    49.1431   Anisotropy =   195.8421

     49  C    Isotropic =    54.6833   Anisotropy =   184.3258

     50  C    Isotropic =    52.2671   Anisotropy =   191.1977

     51  C    Isotropic =    52.0536   Anisotropy =   194.8081

     52  C    Isotropic =    45.0347   Anisotropy =   205.8553

     53  C    Isotropic =    46.2140   Anisotropy =   178.3189

     54  C    Isotropic =    41.7348   Anisotropy =   193.8323

     55  C    Isotropic =    48.6691   Anisotropy =   191.4924

     56  C    Isotropic =    54.1559   Anisotropy =   181.2201

     57  C    Isotropic =    51.8039   Anisotropy =   185.7371

     58  C    Isotropic =    33.6676   Anisotropy =   206.4749

     59  H    Isotropic =    23.6337   Anisotropy =    10.8709

     60  H    Isotropic =    23.5814   Anisotropy =     8.6638

     61  H    Isotropic =    23.8754   Anisotropy =     5.3978

     62  H    Isotropic =    29.2073   Anisotropy =     9.5886

     63  H    Isotropic =    29.9876   Anisotropy =    10.1061

     64  H    Isotropic =    24.4440   Anisotropy =    13.2994

     65  H    Isotropic =    21.3065   Anisotropy =    15.0463

     66  H    Isotropic =    26.0219   Anisotropy =    10.2582

     67  H    Isotropic =    25.0392   Anisotropy =     8.3169

     68  H    Isotropic =    24.6098   Anisotropy =     2.8506

     69  H    Isotropic =    25.2778   Anisotropy =     4.3356

     70  H    Isotropic =    25.3779   Anisotropy =    10.7068

     71  H    Isotropic =    23.5379   Anisotropy =     7.2685

     72  H    Isotropic =    23.7254   Anisotropy =     3.6131

     73  H    Isotropic =    24.0730   Anisotropy =     6.9028

     74  H    Isotropic =    24.2178   Anisotropy =     7.4714

     75  Pd   Isotropic =  -213.5055   Anisotropy =   291.3020

     76  Cl   Isotropic =   950.4788   Anisotropy =   608.9701

     77  Cl   Isotropic =   840.9123   Anisotropy =   226.9015

 1\1\GINC-NC014\SP\RPBE1PBE\Gen\C39H32Cl2O1P2Pd1\MACKK4\06-Dec-2021\0\\
 # PBE1PBE gen pseudo=read int=(grid=ultrafine) empiricaldispersion=GD3
 BJ nmr=giao\\XantPhos_5 title\\0,1\P,0,-1.4620568065,1.4944080069,-3.6
 695148714\C,0,-2.0736515974,1.6587610823,-1.9221004185\C,0,-3.43532581
 01,1.5234355096,-1.5786023119\C,0,-3.8378306284,1.6208308889,-0.240411
 8302\C,0,-2.9060532225,1.8920370571,0.7780313334\C,0,-1.5530699447,2.1
 001978123,0.4733657466\C,0,-1.1884205097,1.9777237204,-0.8800347238\O,
 0,0.1265045192,2.1804832911,-1.2225212338\C,0,-0.4470807834,2.52180067

 Normal termination of Gaussian 09 at Mon Dec  6 04:50:16 2021.
 Gaussian 09:  ES64L-G09RevE.01 30-Nov-2015

 ----------------------------------------------------------------------
 # PBE1PBE gen pseudo=read int=(grid=ultrafine) empiricaldispersion=GD3
 BJ pop=nbo guess=read geom=check
 ----------------------------------------------------------------------

 ----------------
 XantPhos_5 title
 ----------------
 Structure from the checkpoint file:  "XantPhos_5_SPE.chk"
 Charge =  0 Multiplicity = 1

                         Standard orientation:
 ---------------------------------------------------------------------
 Center     Atomic      Atomic             Coordinates (Angstroms)
 Number     Number       Type             X           Y           Z
 ---------------------------------------------------------------------
      1         15           0       -1.730120   -0.539022   -0.050773
      2          6           0       -1.870345    1.199706    0.590849
      3          6           0       -2.913298    1.610914    1.447364
      4          6           0       -2.951509    2.924972    1.931141
      5          6           0       -1.980185    3.866861    1.545963
      6          6           0       -0.964411    3.519323    0.643668
      7          6           0       -0.952996    2.185965    0.194571
      8          8           0        0.021777    1.805540   -0.695671
      9          6           0        0.090413    4.473788    0.042747
     10          6           0        0.287018    5.726141    0.910366
     11          6           0       -0.397019    4.896976   -1.372659
     12          6           0       -1.568289   -1.650764    1.401547
     13          6           0       -1.822013   -1.277582    2.731525
     14          6           0       -1.792084   -2.244928    3.745602
     15          6           0       -1.517167   -3.584889    3.439568
     16          6           0       -1.246278   -3.957982    2.114201
     17          6           0       -1.262154   -2.994862    1.098300
     18          6           0       -3.485205   -0.794298   -0.550619
     19          6           0       -4.320620   -1.721122    0.096356
     20          6           0       -6.188260   -1.009257   -1.287211
     21          6           0       -5.669941   -1.826105   -0.275490
     22          6           0       -5.353595   -0.085436   -1.936018
     23          6           0       -4.007079    0.019803   -1.576783
     24          1           0       -3.695853    0.898104    1.726307
     25          1           0       -2.039616    4.886441    1.938389
     26          1           0       -3.756358    3.227336    2.608033
     27          1           0        0.630182    5.469159    1.926762
     28          1           0       -0.653869    6.295023    0.990313
     29          1           0       -0.537555    4.020236   -2.024977
     30          1           0       -1.357393    5.435376   -1.298197
     31          1           0       -3.925592   -2.360895    0.890034
     32          1           0       -7.240913   -1.094305   -1.576214
     33          1           0       -5.749300    0.545783   -2.738012
     34          1           0       -3.352615    0.719411   -2.104150
     35          1           0       -2.024005   -0.232572    2.981240
     36          1           0       -1.979726   -1.945519    4.781995
     37          1           0       -1.503239   -4.337137    4.235040
     38          1           0       -1.018329   -5.000592    1.869848
     39          1           0       -1.043527   -3.274445    0.060498
     40         15           0        1.807905   -0.357056   -0.284008
     41          6           0        2.336097    1.405356   -0.459253
     42          6           0        3.633205    1.921633   -0.301697
     43          6           0        3.809731    3.293650   -0.064162
     44          6           0        2.708230    4.155416    0.079482
     45          6           0        1.400272    3.679463   -0.112085
     46          6           0        1.277275    2.326479   -0.452873
     47          6           0        1.583302   -0.444991    1.557642
     48          6           0        1.343848    0.682239    2.364861
     49          6           0        1.193942    0.541854    3.752683
     50          6           0        1.288816   -0.720612    4.349818
     51          6           0        1.518212   -1.850609    3.550180
     52          6           0        1.656403   -1.716876    2.165651
     53          6           0        3.300839   -1.418993   -0.454037
     54          6           0        4.372650   -1.254138    0.451048
     55          6           0        5.553878   -3.096305   -0.600332
     56          6           0        5.499067   -2.081247    0.366417
     57          6           0        4.478292   -3.282077   -1.479073
     58          6           0        3.354243   -2.447005   -1.412548
     59          1           0        4.496391    1.251196   -0.335971
     60          1           0        2.878399    5.202921    0.345313
     61          1           0        4.821886    3.692365    0.054357
     62          1           0        1.027726    6.401156    0.451337
     63          1           0        0.347307    5.561444   -1.843750
     64          1           0        4.315091   -0.496111    1.238681
     65          1           0        2.526435   -2.569454   -2.115571
     66          1           0        1.299655    1.681846    1.925092
     67          1           0        1.016288    1.431221    4.366471
     68          1           0        1.181100   -0.827201    5.434185
     69          1           0        1.579526   -2.844128    4.004715
     70          1           0        1.839099   -2.604031    1.551829
     71          1           0        4.510329   -4.079421   -2.228411
     72          1           0        6.432010   -3.747629   -0.660837
     73          1           0        6.329175   -1.939727    1.066293
     74          1           0       -6.313741   -2.551923    0.232104
     75         46           0       -0.037331   -0.816999   -1.626973
     76         17           0        1.589269   -0.533731   -3.358024
     77         17           0       -1.660000   -1.469675   -3.215223
 ---------------------------------------------------------------------

 SCF Done:  E(RPBE1PBE) =  -3310.06347341     A.U. after    2 cycles

 The electronic state is 1-A.
 Alpha  occ. eigenvalues -- -101.61273-101.60530 -77.26580 -77.26528 -19.27024
 Alpha  occ. eigenvalues --  -10.31543 -10.31008 -10.28182 -10.26629 -10.26439
 Alpha  occ. eigenvalues --  -10.26191 -10.26189 -10.26087 -10.25898 -10.25876
 Alpha  occ. eigenvalues --  -10.25784 -10.25504 -10.25497 -10.25322 -10.25143
 Alpha  occ. eigenvalues --  -10.25114 -10.25049 -10.25041 -10.24921 -10.24901
 Alpha  occ. eigenvalues --  -10.24825 -10.24807 -10.24793 -10.24720 -10.24683
 Alpha  occ. eigenvalues --  -10.24645 -10.24527 -10.24431 -10.24250 -10.24088
 Alpha  occ. eigenvalues --  -10.23792 -10.23779 -10.23757 -10.23650 -10.23513
 Alpha  occ. eigenvalues --  -10.23468 -10.23313 -10.23102 -10.22999  -9.43773
 Alpha  occ. eigenvalues --   -9.43036  -7.16979  -7.16482  -7.16455  -7.16253
 Alpha  occ. eigenvalues --   -7.15762  -7.15691  -6.65691  -6.65686  -4.79307
 Alpha  occ. eigenvalues --   -4.79294  -4.79279  -4.79251  -4.79010  -4.79000
 Alpha  occ. eigenvalues --   -3.51001  -2.18875  -2.18617  -2.15148  -1.14163
 Alpha  occ. eigenvalues --   -0.91106  -0.90904  -0.89969  -0.89376  -0.88665
 Alpha  occ. eigenvalues --   -0.88157  -0.86157  -0.81725  -0.81002  -0.80044
 Alpha  occ. eigenvalues --   -0.78755  -0.78505  -0.78235  -0.77791  -0.77632
 Alpha  occ. eigenvalues --   -0.77384  -0.77062  -0.76887  -0.76246  -0.73896
 Alpha  occ. eigenvalues --   -0.72807  -0.72669  -0.69687  -0.69176  -0.67303
 Alpha  occ. eigenvalues --   -0.67129  -0.64209  -0.63906  -0.63306  -0.63180
 Alpha  occ. eigenvalues --   -0.62745  -0.62447  -0.62169  -0.61949  -0.60004
 Alpha  occ. eigenvalues --   -0.59196  -0.58097  -0.57784  -0.54580  -0.54263
 Alpha  occ. eigenvalues --   -0.53561  -0.53022  -0.52582  -0.51370  -0.50706
 Alpha  occ. eigenvalues --   -0.49635  -0.49210  -0.48475  -0.48289  -0.48228
 Alpha  occ. eigenvalues --   -0.48001  -0.47500  -0.47448  -0.47179  -0.46888
 Alpha  occ. eigenvalues --   -0.46704  -0.46512  -0.45097  -0.44835  -0.44601
 Alpha  occ. eigenvalues --   -0.44472  -0.44136  -0.43995  -0.43540  -0.43480
 Alpha  occ. eigenvalues --   -0.43031  -0.41917  -0.41852  -0.41628  -0.41283
 Alpha  occ. eigenvalues --   -0.41001  -0.40680  -0.40456  -0.39828  -0.39119
 Alpha  occ. eigenvalues --   -0.39073  -0.38430  -0.38159  -0.37907  -0.37532
 Alpha  occ. eigenvalues --   -0.37356  -0.37013  -0.36783  -0.36739  -0.36551
 Alpha  occ. eigenvalues --   -0.36078  -0.36019  -0.35594  -0.35251  -0.34935
 Alpha  occ. eigenvalues --   -0.34303  -0.32716  -0.31254  -0.30695  -0.30164
 Alpha  occ. eigenvalues --   -0.29821  -0.29228  -0.28775  -0.28197  -0.28101
 Alpha  occ. eigenvalues --   -0.27930  -0.27832  -0.27432  -0.27174  -0.26821
 Alpha  occ. eigenvalues --   -0.26352  -0.25987  -0.25461  -0.24582  -0.24106
 Alpha  occ. eigenvalues --   -0.23622  -0.22720  -0.22531
 Alpha virt. eigenvalues --   -0.07548  -0.05557  -0.04520  -0.03906  -0.03744
 Alpha virt. eigenvalues --   -0.03251  -0.03172  -0.02878  -0.02387  -0.01777
 Alpha virt. eigenvalues --   -0.01581  -0.01162  -0.00578   0.01046   0.01910

 Mulliken charges:
               1
     1  P    0.280061
     2  C   -0.183653
     3  C   -0.198103
     4  C   -0.147805
     5  C   -0.177360
     6  C   -0.011169
     7  C    0.270353
     8  O   -0.257157
     9  C    0.298124
    10  C   -0.446273
    11  C   -0.405485
    12  C   -0.025934
    13  C   -0.077176
    14  C   -0.152521
    15  C   -0.117636
    16  C   -0.118913
    17  C   -0.154343
    18  C    0.063098
    19  C   -0.145076
    20  C   -0.091145
    21  C   -0.164248
    22  C   -0.127820
    23  C   -0.178102
    24  H    0.176976
    25  H    0.123196
    26  H    0.123261
    27  H    0.149208
    28  H    0.135727
    29  H    0.169933
    30  H    0.128354
    31  H    0.149818
    32  H    0.119628
    33  H    0.121578
    34  H    0.148731
    35  H    0.157815
    36  H    0.114498
    37  H    0.122298
    38  H    0.129689
    39  H    0.184960
    40  P    0.231463
    41  C   -0.016421
    42  C   -0.156122
    43  C   -0.149387
    44  C   -0.170892
    45  C   -0.001466
    46  C    0.171099
    47  C   -0.036196
    48  C   -0.031685
    49  C   -0.232229
    50  C   -0.078850
    51  C   -0.124845
    52  C   -0.120017
    53  C    0.038776
    54  C   -0.239888
    55  C   -0.088176
    56  C   -0.152622
    57  C   -0.149741
    58  C   -0.146979
    59  H    0.164874
    60  H    0.121558
    61  H    0.121838
    62  H    0.138640
    63  H    0.130100
    64  H    0.177517
    65  H    0.189719
    66  H    0.138125
    67  H    0.115036
    68  H    0.116055
    69  H    0.113843
    70  H    0.148530
    71  H    0.127793
    72  H    0.122825
    73  H    0.120809
    74  H    0.117081
    75  Pd   0.120716
    76  Cl  -0.409061
    77  Cl  -0.409207
 Sum of Mulliken charges =  -0.00000

 Dipole moment (field-independent basis, Debye):
    X=              0.4645    Y=              3.6013    Z=             11.8828  Tot=             12.4252
 Quadrupole moment (field-independent basis, Debye-Ang):
   XX=           -275.0906   YY=           -264.4523   ZZ=           -321.7974
   XY=             -6.5184   XZ=             -1.5676   YZ=            -11.3635

 Summary of Natural Population Analysis:

                                       Natural Population
                Natural  -----------------------------------------------
    Atom  No    Charge         Core      Valence    Rydberg      Total
 -----------------------------------------------------------------------
      P    1    1.16722      9.99573     3.78471    0.05234    13.83278
      C    2   -0.37317      1.99886     4.34108    0.03323     6.37317
      C    3   -0.18435      1.99912     4.16573    0.01949     6.18435
      C    4   -0.22474      1.99923     4.20796    0.01755     6.22474
      C    5   -0.18334      1.99913     4.16718    0.01704     6.18334
      C    6   -0.05629      1.99893     4.03681    0.02055     6.05629
      C    7    0.30102      1.99862     3.67680    0.02356     5.69898
      O    8   -0.44881      1.99972     6.42212    0.02697     8.44881
      C    9   -0.07399      1.99930     4.05695    0.01774     6.07399
      C   10   -0.61646      1.99943     4.60427    0.01276     6.61646
      C   11   -0.60267      1.99940     4.59145    0.01182     6.60267
      C   12   -0.35311      1.99903     4.31698    0.03710     6.35311
      C   13   -0.20187      1.99907     4.18179    0.02102     6.20187
      C   14   -0.20584      1.99921     4.18782    0.01881     6.20584
      C   15   -0.20632      1.99921     4.18885    0.01826     6.20632
      C   16   -0.21303      1.99921     4.19568    0.01815     6.21303
      C   17   -0.20110      1.99910     4.18283    0.01917     6.20110
      C   18   -0.33383      1.99900     4.29936    0.03546     6.33383
      C   19   -0.21061      1.99910     4.19209    0.01942     6.21061
      C   20   -0.19875      1.99922     4.18149    0.01804     6.19875
      C   21   -0.21577      1.99921     4.19864    0.01791     6.21577
      C   22   -0.20983      1.99921     4.19265    0.01796     6.20983
      C   23   -0.16964      1.99910     4.15099    0.01955     6.16964
      H   24    0.23579      0.00000     0.76229    0.00193     0.76421
      H   25    0.22366      0.00000     0.77497    0.00137     0.77634
      H   26    0.22539      0.00000     0.77351    0.00110     0.77461
      H   27    0.22226      0.00000     0.77672    0.00102     0.77774
      H   28    0.21950      0.00000     0.77943    0.00107     0.78050
      H   29    0.23264      0.00000     0.76645    0.00090     0.76736
      H   30    0.21588      0.00000     0.78312    0.00100     0.78412
      H   31    0.22879      0.00000     0.76917    0.00204     0.77121
      H   32    0.21891      0.00000     0.77992    0.00116     0.78109
      H   33    0.22259      0.00000     0.77618    0.00123     0.77741
      H   34    0.23758      0.00000     0.76078    0.00164     0.76242
      H   35    0.23143      0.00000     0.76604    0.00253     0.76857
      H   36    0.22223      0.00000     0.77649    0.00129     0.77777
      H   37    0.22161      0.00000     0.77722    0.00117     0.77839
      H   38    0.22604      0.00000     0.77277    0.00119     0.77396
      H   39    0.24708      0.00000     0.75154    0.00138     0.75292
      P   40    1.16572      9.99568     3.78343    0.05517    13.83428
      C   41   -0.35172      1.99883     4.31689    0.03601     6.35172
      C   42   -0.18314      1.99911     4.16508    0.01894     6.18314
      C   43   -0.21364      1.99923     4.19732    0.01709     6.21364
      C   44   -0.19206      1.99913     4.17583    0.01710     6.19206
      C   45   -0.05546      1.99891     4.03557    0.02098     6.05546
      C   46    0.29300      1.99859     3.68449    0.02393     5.70700
      C   47   -0.34841      1.99901     4.31366    0.03574     6.34841
      C   48   -0.21474      1.99908     4.19578    0.01988     6.21474
      C   49   -0.21473      1.99921     4.19725    0.01827     6.21473
      C   50   -0.20416      1.99921     4.18716    0.01779     6.20416
      C   51   -0.20578      1.99920     4.18775    0.01883     6.20578
      C   52   -0.19827      1.99909     4.17868    0.02050     6.19827
      C   53   -0.36204      1.99900     4.32967    0.03337     6.36204
      C   54   -0.20517      1.99911     4.18609    0.01997     6.20517
      C   55   -0.19323      1.99922     4.17627    0.01775     6.19323
      C   56   -0.22117      1.99921     4.20383    0.01813     6.22117
      C   57   -0.21234      1.99921     4.19518    0.01795     6.21234
      C   58   -0.16921      1.99912     4.15160    0.01850     6.16921
      H   59    0.23577      0.00000     0.76268    0.00155     0.76423
      H   60    0.22361      0.00000     0.77501    0.00138     0.77639
      H   61    0.22475      0.00000     0.77412    0.00113     0.77525
      H   62    0.22081      0.00000     0.77814    0.00105     0.77919
      H   63    0.21854      0.00000     0.78048    0.00098     0.78146
      H   64    0.22716      0.00000     0.77063    0.00221     0.77284
      H   65    0.26211      0.00000     0.73645    0.00144     0.73789
      H   66    0.22873      0.00000     0.76915    0.00211     0.77127
      H   67    0.22077      0.00000     0.77800    0.00123     0.77923
      H   68    0.21970      0.00000     0.77912    0.00117     0.78030
      H   69    0.22273      0.00000     0.77582    0.00145     0.77727
      H   70    0.23281      0.00000     0.76509    0.00210     0.76719
      H   71    0.22522      0.00000     0.77357    0.00121     0.77478
      H   72    0.22023      0.00000     0.77862    0.00116     0.77977
      H   73    0.22099      0.00000     0.77776    0.00124     0.77901
      H   74    0.21927      0.00000     0.77949    0.00124     0.78073
     Pd   75   -0.15077     35.98957    10.13676    0.02444    46.15077
     Cl   76   -0.40300      9.99961     7.39414    0.00925    17.40300
     Cl   77   -0.39900      9.99963     7.39054    0.00883    17.39900
 =======================================================================
   * Total *   -0.00000    155.94504   227.00795    1.04701   384.00000

 1\1\GINC-NC014\SP\RPBE1PBE\Gen\C39H32Cl2O1P2Pd1\MACKK4\06-Dec-2021\0\\
 # PBE1PBE gen pseudo=read int=(grid=ultrafine) empiricaldispersion=GD3
 BJ pop=nbo guess=read geom=check\\XantPhos_5 title\\0,1\P,0,-1.4620568
 065,1.4944080069,-3.6695148714\C,0,-2.0736515974,1.6587610823,-1.92210
 04185\C,0,-3.4353258101,1.5234355096,-1.5786023119\C,0,-3.8378306284,1
 .6208308889,-0.2404118302\C,0,-2.9060532225,1.8920370571,0.7780313334\
 C,0,-1.5530699447,2.1001978123,0.4733657466\C,0,-1.1884205097,1.977723
 7204,-0.8800347238\O,0,0.1265045192,2.1804832911,-1.2225212338\C,0,-0.

 Normal termination of Gaussian 09 at Mon Dec  6 05:01:21 2021.
