 Gaussian 09, Revision E.01,

 ----------------------------------------------------------------------
 # PBE1PBE gen pseudo=read int=(grid=ultrafine) empiricaldispersion=GD3
 BJ nmr=giao
 ----------------------------------------------------------------------

 ----------------
 XantPhos_2 title
 ----------------
 Symbolic Z-matrix:
 Charge =  0 Multiplicity = 1

 SCF Done:  E(RPBE1PBE) =  -3310.05696362     A.U. after   24 cycles

      1  P    Isotropic =   258.7258   Anisotropy =    91.4503

      2  C    Isotropic =    51.6934   Anisotropy =   154.7880

      3  C    Isotropic =    44.3079   Anisotropy =   187.9139

      4  C    Isotropic =    56.1667   Anisotropy =   177.3723

      5  C    Isotropic =    53.3174   Anisotropy =   180.9007

      6  C    Isotropic =    42.2429   Anisotropy =   170.1313

      7  C    Isotropic =    19.4304   Anisotropy =   133.0653

      8  O    Isotropic =   143.9405   Anisotropy =   200.6683

      9  C    Isotropic =   142.6252   Anisotropy =     7.9529

     10  C    Isotropic =   162.5223   Anisotropy =    29.8173

     11  C    Isotropic =   154.8651   Anisotropy =    42.6597

     12  C    Isotropic =    40.6451   Anisotropy =   188.6681

     13  C    Isotropic =    47.4692   Anisotropy =   195.6699

     14  C    Isotropic =    53.9520   Anisotropy =   184.4281

     15  C    Isotropic =    51.8802   Anisotropy =   191.0023

     16  C    Isotropic =    51.5682   Anisotropy =   194.2712

     17  C    Isotropic =    44.1555   Anisotropy =   205.4654

     18  C    Isotropic =    44.9718   Anisotropy =   186.6811

     19  C    Isotropic =    42.1317   Anisotropy =   190.8585

     20  C    Isotropic =    50.7667   Anisotropy =   188.4860

     21  C    Isotropic =    51.9059   Anisotropy =   185.5747

     22  C    Isotropic =    52.3284   Anisotropy =   184.2310

     23  C    Isotropic =    48.0747   Anisotropy =   191.2938

     24  H    Isotropic =    23.8761   Anisotropy =    10.9093

     25  H    Isotropic =    23.6872   Anisotropy =     8.9569

     26  H    Isotropic =    24.1009   Anisotropy =     5.3500

     27  H    Isotropic =    29.9190   Anisotropy =     9.4729

     28  H    Isotropic =    29.2840   Anisotropy =     9.6037

     29  H    Isotropic =    28.9783   Anisotropy =     6.0365

     30  H    Isotropic =    30.1054   Anisotropy =    10.0025

     31  H    Isotropic =    22.8632   Anisotropy =    12.3852

     32  H    Isotropic =    23.6519   Anisotropy =     3.7324

     33  H    Isotropic =    23.6931   Anisotropy =     6.3092

     34  H    Isotropic =    23.0038   Anisotropy =    12.5024

     35  H    Isotropic =    23.8651   Anisotropy =    13.2366

     36  H    Isotropic =    24.3522   Anisotropy =     5.7459

     37  H    Isotropic =    24.5901   Anisotropy =     3.9400

     38  H    Isotropic =    25.5571   Anisotropy =     7.1187

     39  H    Isotropic =    26.2901   Anisotropy =     9.0022

     40  P    Isotropic =   242.5376   Anisotropy =   108.8999

     41  C    Isotropic =    54.9069   Anisotropy =   148.0573

     42  C    Isotropic =    44.1563   Anisotropy =   187.8769

     43  C    Isotropic =    57.3111   Anisotropy =   174.5521

     44  C    Isotropic =    51.9822   Anisotropy =   181.6148

     45  C    Isotropic =    40.7912   Anisotropy =   170.6623

     46  C    Isotropic =    19.0574   Anisotropy =   131.5859

     47  C    Isotropic =    49.6209   Anisotropy =   187.1949

     48  C    Isotropic =    48.0988   Anisotropy =   197.6343

     49  C    Isotropic =    51.9596   Anisotropy =   188.5436

     50  C    Isotropic =    48.2681   Anisotropy =   197.6361

     51  C    Isotropic =    50.8667   Anisotropy =   194.7358

     52  C    Isotropic =    38.8739   Anisotropy =   199.6307

     53  C    Isotropic =    44.5766   Anisotropy =   173.3708

     54  C    Isotropic =    38.8289   Anisotropy =   203.5493

     55  C    Isotropic =    50.0657   Anisotropy =   189.3827

     56  C    Isotropic =    54.5037   Anisotropy =   182.1111

     57  C    Isotropic =    53.8866   Anisotropy =   181.3121

     58  C    Isotropic =    45.8332   Anisotropy =   194.9860

     59  H    Isotropic =    23.9065   Anisotropy =    11.4476

     60  H    Isotropic =    23.4934   Anisotropy =     9.1429

     61  H    Isotropic =    23.8907   Anisotropy =     5.5642

     62  H    Isotropic =    29.2478   Anisotropy =     9.4288

     63  H    Isotropic =    30.1310   Anisotropy =     9.8548

     64  H    Isotropic =    23.1929   Anisotropy =    12.0965

     65  H    Isotropic =    24.9992   Anisotropy =    15.7352

     66  H    Isotropic =    24.1375   Anisotropy =    12.4429

     67  H    Isotropic =    24.1706   Anisotropy =     6.1510

     68  H    Isotropic =    24.1845   Anisotropy =     3.3015

     69  H    Isotropic =    24.6112   Anisotropy =     5.9271

     70  H    Isotropic =    23.2485   Anisotropy =     9.6761

     71  H    Isotropic =    24.1659   Anisotropy =     7.5315

     72  H    Isotropic =    23.8807   Anisotropy =     3.4104

     73  H    Isotropic =    23.8471   Anisotropy =     6.9055

     74  H    Isotropic =    23.4686   Anisotropy =     6.7948

     75  Pd   Isotropic =  -206.9060   Anisotropy =   279.9214

     76  Cl   Isotropic =   850.3571   Anisotropy =   243.1783

     77  Cl   Isotropic =   861.5522   Anisotropy =   513.4563

 1\1\GINC-NC053\SP\RPBE1PBE\Gen\C39H32Cl2O1P2Pd1\MACKK4\06-Dec-2021\0\\
 # PBE1PBE gen pseudo=read int=(grid=ultrafine) empiricaldispersion=GD3
 BJ nmr=giao\\XantPhos_2 title\\0,1\P,0,-1.62940157,1.6450186821,-3.463
 2554537\C,0,-2.1684513049,2.236278409,-1.7957049443\C,0,-3.5198612774,
 2.3176229737,-1.3994828427\C,0,-3.8542170425,2.5139184907,-0.054544412
 6\C,0,-2.8564044288,2.5785720177,0.9325229471\C,0,-1.502389973,2.47402
 03421,0.5853907393\C,0,-1.2017472699,2.3299753139,-0.780639186\O,0,0.1
 207977689,2.1652870494,-1.1466650232\C,0,-0.3113563005,2.4828297544,1.

 Normal termination of Gaussian 09 at Mon Dec  6 04:36:22 2021.
 Gaussian 09:  ES64L-G09RevE.01 30-Nov-2015

 ----------------------------------------------------------------------
 # PBE1PBE gen pseudo=read int=(grid=ultrafine) empiricaldispersion=GD3
 BJ pop=nbo guess=read geom=check
 ----------------------------------------------------------------------

 ----------------
 XantPhos_2 title
 ----------------
 Structure from the checkpoint file:  "XantPhos_2_SPE.chk"
 Charge =  0 Multiplicity = 1

                         Standard orientation:
 ---------------------------------------------------------------------
 Center     Atomic      Atomic             Coordinates (Angstroms)
 Number     Number       Type             X           Y           Z
 ---------------------------------------------------------------------
      1         15           0       -1.863520   -0.321683   -0.111779
      2          6           0       -2.146767    1.498763    0.051427
      3          6           0       -3.280260    2.055578    0.679972
      4          6           0       -3.312776    3.415811    1.008444
      5          6           0       -2.200132    4.240007    0.770039
      6          6           0       -1.043110    3.720681    0.173056
      7          6           0       -1.065770    2.362682   -0.190944
      8          8           0        0.081319    1.808856   -0.727308
      9          6           0        0.259204    4.490017   -0.106091
     10          6           0        0.334519    5.801424    0.689475
     11          6           0        0.326614    4.810071   -1.627526
     12          6           0       -1.922973   -0.733795    1.698912
     13          6           0       -2.699582   -1.791366    2.208261
     14          6           0       -2.724674   -2.051621    3.585958
     15          6           0       -1.975518   -1.264528    4.468822
     16          6           0       -1.197245   -0.210192    3.967941
     17          6           0       -1.170794    0.053583    2.595517
     18          6           0       -3.385278   -1.126229   -0.746915
     19          6           0       -3.320901   -2.523783   -0.926516
     20          6           0       -5.631160   -2.547522   -1.670255
     21          6           0       -4.441779   -3.230266   -1.375206
     22          6           0       -5.686985   -1.155369   -1.525729
     23          6           0       -4.570638   -0.443533   -1.065558
     24          1           0       -4.118457    1.411106    0.958966
     25          1           0       -2.234730    5.289643    1.075823
     26          1           0       -4.201929    3.833794    1.490116
     27          1           0        0.294921    5.625033    1.777763
     28          1           0       -0.497830    6.468684    0.411695
     29          1           0        0.272797    3.892450   -2.234547
     30          1           0       -0.515811    5.463584   -1.911464
     31          1           0       -2.375884   -3.050599   -0.752271
     32          1           0       -6.504584   -3.098031   -2.033927
     33          1           0       -6.600833   -0.611969   -1.787188
     34          1           0       -4.614699    0.645911   -1.003259
     35          1           0       -3.305400   -2.401324    1.532981
     36          1           0       -3.343468   -2.870740    3.967444
     37          1           0       -1.997704   -1.468494    5.544287
     38          1           0       -0.603219    0.408138    4.648128
     39          1           0       -0.567861    0.887429    2.221451
     40         15           0        1.785257   -0.606730   -0.086446
     41          6           0        2.200317    1.182301    0.168363
     42          6           0        3.430167    1.599967    0.721906
     43          6           0        3.639449    2.944042    1.053866
     44          6           0        2.633265    3.901387    0.839884
     45          6           0        1.418266    3.538905    0.241670
     46          6           0        1.251520    2.184885   -0.102064
     47          6           0        1.573778   -1.300606    1.605394
     48          6           0        2.218551   -0.785893    2.744877
     49          6           0        2.101786   -1.446274    3.974259
     50          6           0        1.346431   -2.623667    4.074663
     51          6           0        0.698594   -3.138360    2.943073
     52          6           0        0.806089   -2.476439    1.713955
     53          6           0        3.423702   -1.299230   -0.560024
     54          6           0        4.187954   -0.654965   -1.555178
     55          6           0        5.930238   -2.330938   -1.309017
     56          6           0        5.438668   -1.166104   -1.917333
     57          6           0        5.167114   -2.981354   -0.331090
     58          6           0        3.918433   -2.467849    0.046881
     59          1           0        4.219955    0.861532    0.890820
     60          1           0        2.811604    4.941080    1.129560
     61          1           0        4.594680    3.251062    1.490563
     62          1           0        1.265973    6.342405    0.455290
     63          1           0        1.272091    5.328489   -1.861824
     64          1           0        3.799123    0.239768   -2.047388
     65          1           0        3.334986   -2.977068    0.819121
     66          1           0        2.805348    0.134643    2.675559
     67          1           0        2.602690   -1.038104    4.858497
     68          1           0        1.254580   -3.135354    5.038131
     69          1           0        0.092386   -4.046200    3.019861
     70          1           0        0.291293   -2.859112    0.824860
     71          1           0        5.543095   -3.891472    0.147508
     72          1           0        6.906230   -2.732236   -1.600926
     73          1           0        6.024628   -0.659020   -2.690524
     74          1           0       -4.377186   -4.313636   -1.518394
     75         46           0       -0.033895   -0.786261   -1.514290
     76         17           0        1.527345   -1.259508   -3.222727
     77         17           0       -1.681117   -0.419866   -3.200248
 ---------------------------------------------------------------------

 SCF Done:  E(RPBE1PBE) =  -3310.05696362     A.U. after    2 cycles

 The electronic state is 1-A.
 Alpha  occ. eigenvalues -- -101.60757-101.60583 -77.26460 -77.26452 -19.26935
 Alpha  occ. eigenvalues --  -10.31566 -10.31344 -10.27969 -10.26622 -10.26507
 Alpha  occ. eigenvalues --  -10.26369 -10.26209 -10.25934 -10.25804 -10.25799
 Alpha  occ. eigenvalues --  -10.25783 -10.25598 -10.25587 -10.25297 -10.25133
 Alpha  occ. eigenvalues --  -10.25127 -10.25095 -10.25069 -10.24947 -10.24888
 Alpha  occ. eigenvalues --  -10.24877 -10.24823 -10.24808 -10.24583 -10.24533
 Alpha  occ. eigenvalues --  -10.24456 -10.24381 -10.23987 -10.23866 -10.23816
 Alpha  occ. eigenvalues --  -10.23702 -10.23630 -10.23584 -10.23563 -10.23526
 Alpha  occ. eigenvalues --  -10.23512 -10.23313 -10.23141 -10.22757  -9.43257
 Alpha  occ. eigenvalues --   -9.43087  -7.16491  -7.16302  -7.15972  -7.15903
 Alpha  occ. eigenvalues --   -7.15801  -7.15751  -6.65602  -6.65589  -4.79223
 Alpha  occ. eigenvalues --   -4.79212  -4.79174  -4.79156  -4.78914  -4.78900
 Alpha  occ. eigenvalues --   -3.50848  -2.18776  -2.18430  -2.14975  -1.13848
 Alpha  occ. eigenvalues --   -0.91063  -0.90934  -0.89949  -0.89250  -0.88400
 Alpha  occ. eigenvalues --   -0.88183  -0.86169  -0.81673  -0.80932  -0.80020
 Alpha  occ. eigenvalues --   -0.78719  -0.78543  -0.78130  -0.77868  -0.77291
 Alpha  occ. eigenvalues --   -0.77239  -0.77036  -0.76911  -0.76302  -0.73561
 Alpha  occ. eigenvalues --   -0.72653  -0.72553  -0.69537  -0.69181  -0.67198
 Alpha  occ. eigenvalues --   -0.67125  -0.64177  -0.63992  -0.63342  -0.62960
 Alpha  occ. eigenvalues --   -0.62669  -0.62393  -0.62190  -0.61919  -0.59929
 Alpha  occ. eigenvalues --   -0.59248  -0.58108  -0.57638  -0.54583  -0.54197
 Alpha  occ. eigenvalues --   -0.53544  -0.52965  -0.52553  -0.51260  -0.50697
 Alpha  occ. eigenvalues --   -0.49739  -0.49213  -0.48451  -0.48274  -0.48236
 Alpha  occ. eigenvalues --   -0.47770  -0.47398  -0.47277  -0.47119  -0.47032
 Alpha  occ. eigenvalues --   -0.46746  -0.46520  -0.45161  -0.44709  -0.44430
 Alpha  occ. eigenvalues --   -0.44377  -0.43922  -0.43794  -0.43566  -0.43538
 Alpha  occ. eigenvalues --   -0.43307  -0.42023  -0.41667  -0.41485  -0.41122
 Alpha  occ. eigenvalues --   -0.40883  -0.40772  -0.40473  -0.39587  -0.39129
 Alpha  occ. eigenvalues --   -0.38769  -0.38394  -0.38122  -0.37863  -0.37517
 Alpha  occ. eigenvalues --   -0.37274  -0.37028  -0.36798  -0.36644  -0.36466
 Alpha  occ. eigenvalues --   -0.36062  -0.35803  -0.35470  -0.35325  -0.34872
 Alpha  occ. eigenvalues --   -0.34232  -0.32651  -0.31162  -0.30618  -0.30248
 Alpha  occ. eigenvalues --   -0.29900  -0.29013  -0.28819  -0.28530  -0.28030
 Alpha  occ. eigenvalues --   -0.27978  -0.27357  -0.27090  -0.26887  -0.26606
 Alpha  occ. eigenvalues --   -0.26062  -0.25933  -0.25477  -0.24198  -0.23731
 Alpha  occ. eigenvalues --   -0.23304  -0.22725  -0.22247
 Alpha virt. eigenvalues --   -0.07476  -0.05773  -0.04683  -0.03932  -0.03395
 Alpha virt. eigenvalues --   -0.03221  -0.02957  -0.02549  -0.02061  -0.01851
 Alpha virt. eigenvalues --   -0.01361  -0.01235  -0.00575   0.00690   0.01736

 Mulliken charges:
               1
     1  P    0.162769
     2  C   -0.076529
     3  C   -0.170495
     4  C   -0.170766
     5  C   -0.160308
     6  C    0.009387
     7  C    0.212328
     8  O   -0.265403
     9  C    0.270470
    10  C   -0.451001
    11  C   -0.413165
    12  C    0.038564
    13  C   -0.137932
    14  C   -0.193056
    15  C   -0.092797
    16  C   -0.141306
    17  C   -0.088828
    18  C    0.084685
    19  C   -0.188265
    20  C   -0.101915
    21  C   -0.105510
    22  C   -0.151241
    23  C   -0.161882
    24  H    0.179024
    25  H    0.124987
    26  H    0.121918
    27  H    0.152301
    28  H    0.139519
    29  H    0.179515
    30  H    0.128974
    31  H    0.150240
    32  H    0.120688
    33  H    0.118365
    34  H    0.170595
    35  H    0.165779
    36  H    0.119862
    37  H    0.116814
    38  H    0.111391
    39  H    0.135849
    40  P    0.325133
    41  C   -0.214352
    42  C   -0.191407
    43  C   -0.141001
    44  C   -0.188619
    45  C    0.018260
    46  C    0.297612
    47  C   -0.088239
    48  C   -0.069543
    49  C   -0.207652
    50  C   -0.068324
    51  C   -0.120541
    52  C   -0.064437
    53  C    0.092491
    54  C   -0.204072
    55  C   -0.102282
    56  C   -0.108826
    57  C   -0.152360
    58  C   -0.158491
    59  H    0.179094
    60  H    0.123652
    61  H    0.124413
    62  H    0.137546
    63  H    0.127483
    64  H    0.149789
    65  H    0.148779
    66  H    0.132166
    67  H    0.120045
    68  H    0.119763
    69  H    0.118332
    70  H    0.169441
    71  H    0.117843
    72  H    0.119873
    73  H    0.122672
    74  H    0.121616
    75  Pd   0.074557
    76  Cl  -0.405169
    77  Cl  -0.398868
 Sum of Mulliken charges =  -0.00000

 Dipole moment (field-independent basis, Debye):
    X=              0.2621    Y=              3.5710    Z=             11.5505  Tot=             12.0928
 Quadrupole moment (field-independent basis, Debye-Ang):
   XX=           -270.5731   YY=           -264.9978   ZZ=           -321.5934
   XY=              7.2797   XZ=              0.9534   YZ=            -10.8956

 Summary of Natural Population Analysis:

                                       Natural Population
                Natural  -----------------------------------------------
    Atom  No    Charge         Core      Valence    Rydberg      Total
 -----------------------------------------------------------------------
      P    1    1.15444      9.99579     3.79501    0.05476    13.84556
      C    2   -0.36478      1.99885     4.33232    0.03361     6.36478
      C    3   -0.18524      1.99912     4.16665    0.01948     6.18524
      C    4   -0.21775      1.99922     4.20100    0.01753     6.21775
      C    5   -0.18532      1.99913     4.16919    0.01701     6.18532
      C    6   -0.05158      1.99893     4.03225    0.02040     6.05158
      C    7    0.29977      1.99859     3.67882    0.02282     5.70023
      O    8   -0.43985      1.99973     6.41281    0.02731     8.43985
      C    9   -0.07472      1.99929     4.05776    0.01767     6.07472
      C   10   -0.61824      1.99944     4.60595    0.01285     6.61824
      C   11   -0.60380      1.99940     4.59259    0.01181     6.60380
      C   12   -0.34321      1.99900     4.30845    0.03576     6.34321
      C   13   -0.21224      1.99910     4.19411    0.01904     6.21224
      C   14   -0.21312      1.99921     4.19605    0.01786     6.21312
      C   15   -0.20353      1.99921     4.18577    0.01856     6.20353
      C   16   -0.20568      1.99921     4.18707    0.01941     6.20568
      C   17   -0.19783      1.99908     4.17770    0.02105     6.19783
      C   18   -0.31982      1.99900     4.28453    0.03629     6.31982
      C   19   -0.20536      1.99910     4.18719    0.01907     6.20536
      C   20   -0.20340      1.99922     4.18606    0.01813     6.20340
      C   21   -0.20590      1.99920     4.18879    0.01790     6.20590
      C   22   -0.20333      1.99921     4.18646    0.01767     6.20333
      C   23   -0.20070      1.99909     4.18185    0.01976     6.20070
      H   24    0.23170      0.00000     0.76621    0.00209     0.76830
      H   25    0.22398      0.00000     0.77465    0.00136     0.77602
      H   26    0.22506      0.00000     0.77385    0.00110     0.77494
      H   27    0.22246      0.00000     0.77650    0.00104     0.77754
      H   28    0.22123      0.00000     0.77771    0.00106     0.77877
      H   29    0.23668      0.00000     0.76238    0.00094     0.76332
      H   30    0.21765      0.00000     0.78137    0.00099     0.78235
      H   31    0.22731      0.00000     0.77091    0.00177     0.77269
      H   32    0.22025      0.00000     0.77859    0.00116     0.77975
      H   33    0.22045      0.00000     0.77832    0.00123     0.77955
      H   34    0.22590      0.00000     0.77221    0.00189     0.77410
      H   35    0.23587      0.00000     0.76222    0.00191     0.76413
      H   36    0.22099      0.00000     0.77777    0.00124     0.77901
      H   37    0.21963      0.00000     0.77919    0.00118     0.78037
      H   38    0.22289      0.00000     0.77578    0.00133     0.77711
      H   39    0.22453      0.00000     0.77339    0.00207     0.77547
      P   40    1.16608      9.99566     3.78528    0.05298    13.83392
      C   41   -0.37698      1.99887     4.34495    0.03316     6.37698
      C   42   -0.19212      1.99913     4.17316    0.01983     6.19212
      C   43   -0.22340      1.99922     4.20649    0.01769     6.22340
      C   44   -0.18392      1.99913     4.16770    0.01709     6.18392
      C   45   -0.04946      1.99894     4.03012    0.02040     6.04946
      C   46    0.29970      1.99861     3.67888    0.02280     5.70030
      C   47   -0.35226      1.99901     4.31847    0.03478     6.35226
      C   48   -0.20429      1.99907     4.18533    0.01989     6.20429
      C   49   -0.21298      1.99921     4.19575    0.01803     6.21298
      C   50   -0.19620      1.99921     4.17863    0.01836     6.19620
      C   51   -0.20519      1.99920     4.18727    0.01871     6.20519
      C   52   -0.19673      1.99908     4.17775    0.01991     6.19673
      C   53   -0.34170      1.99900     4.30725    0.03544     6.34170
      C   54   -0.17202      1.99910     4.15302    0.01990     6.17202
      C   55   -0.19746      1.99922     4.18018    0.01807     6.19746
      C   56   -0.21441      1.99921     4.19710    0.01810     6.21441
      C   57   -0.21585      1.99921     4.19874    0.01790     6.21585
      C   58   -0.20258      1.99910     4.18401    0.01946     6.20258
      H   59    0.23865      0.00000     0.75944    0.00190     0.76135
      H   60    0.22416      0.00000     0.77447    0.00137     0.77584
      H   61    0.22562      0.00000     0.77328    0.00110     0.77438
      H   62    0.22034      0.00000     0.77860    0.00107     0.77966
      H   63    0.21606      0.00000     0.78294    0.00100     0.78394
      H   64    0.23971      0.00000     0.75867    0.00162     0.76029
      H   65    0.22794      0.00000     0.77021    0.00185     0.77206
      H   66    0.22800      0.00000     0.76968    0.00232     0.77200
      H   67    0.22138      0.00000     0.77736    0.00126     0.77862
      H   68    0.22151      0.00000     0.77730    0.00119     0.77849
      H   69    0.22628      0.00000     0.77240    0.00132     0.77372
      H   70    0.23664      0.00000     0.76115    0.00220     0.76336
      H   71    0.21965      0.00000     0.77911    0.00124     0.78035
      H   72    0.21904      0.00000     0.77979    0.00116     0.78096
      H   73    0.22251      0.00000     0.77625    0.00124     0.77749
      H   74    0.22248      0.00000     0.77628    0.00125     0.77752
     Pd   75   -0.16099     35.98966    10.14604    0.02530    46.16099
     Cl   76   -0.37926      9.99961     7.37060    0.00906    17.37926
     Cl   77   -0.39336      9.99962     7.38472    0.00902    17.39336
 =======================================================================
   * Total *   -0.00000    155.94518   227.00776    1.04706   384.00000

 1\1\GINC-NC053\SP\RPBE1PBE\Gen\C39H32Cl2O1P2Pd1\MACKK4\06-Dec-2021\0\\
 # PBE1PBE gen pseudo=read int=(grid=ultrafine) empiricaldispersion=GD3
 BJ pop=nbo guess=read geom=check\\XantPhos_2 title\\0,1\P,0,-1.6294015
 7,1.6450186821,-3.4632554537\C,0,-2.1684513049,2.236278409,-1.79570494
 43\C,0,-3.5198612774,2.3176229737,-1.3994828427\C,0,-3.8542170425,2.51
 39184907,-0.0545444126\C,0,-2.8564044288,2.5785720177,0.9325229471\C,0
 ,-1.502389973,2.4740203421,0.5853907393\C,0,-1.2017472699,2.3299753139
 ,-0.780639186\O,0,0.1207977689,2.1652870494,-1.1466650232\C,0,-0.31135

 Normal termination of Gaussian 09 at Mon Dec  6 04:47:04 2021.
