 Gaussian 09, Revision E.01,

 ----------------------------------------------------------------------
 # PBE1PBE/def2TZVP int=(grid=ultrafine) empiricaldispersion=GD3BJ nmr=
 giao
 ----------------------------------------------------------------------

 ----------------
 XantPhos_3 title
 ----------------
 Symbolic Z-matrix:
 Charge =  0 Multiplicity = 1

 SCF Done:  E(RPBE1PBE) =  -2261.89489501     A.U. after   15 cycles

      1  P    Isotropic =   301.6549   Anisotropy =    43.7374

      2  C    Isotropic =    47.2882   Anisotropy =   163.1925

      3  C    Isotropic =    42.2715   Anisotropy =   193.6232

      4  C    Isotropic =    56.0675   Anisotropy =   175.8618

      5  C    Isotropic =    55.2483   Anisotropy =   176.6744

      6  C    Isotropic =    43.6353   Anisotropy =   166.8350

      7  C    Isotropic =    19.4709   Anisotropy =   130.1689

      8  O    Isotropic =   142.2256   Anisotropy =   181.3284

      9  C    Isotropic =   143.2696   Anisotropy =     8.8250

     10  C    Isotropic =   162.5592   Anisotropy =    30.1042

     11  C    Isotropic =   154.5345   Anisotropy =    43.6630

     12  C    Isotropic =    41.4564   Anisotropy =   198.7035

     13  C    Isotropic =    44.1496   Anisotropy =   198.0163

     14  C    Isotropic =    52.7918   Anisotropy =   194.0722

     15  C    Isotropic =    51.8048   Anisotropy =   191.3086

     16  C    Isotropic =    52.2361   Anisotropy =   186.7680

     17  C    Isotropic =    48.5350   Anisotropy =   196.0344

     18  C    Isotropic =    35.6163   Anisotropy =   203.6829

     19  C    Isotropic =    48.3412   Anisotropy =   185.1917

     20  C    Isotropic =    54.0751   Anisotropy =   183.1613

     21  C    Isotropic =    52.6534   Anisotropy =   183.9671

     22  C    Isotropic =    51.9726   Anisotropy =   184.1430

     23  C    Isotropic =    47.7314   Anisotropy =   193.5441

     24  H    Isotropic =    24.5998   Anisotropy =    12.3483

     25  H    Isotropic =    23.7834   Anisotropy =     8.8089

     26  H    Isotropic =    24.1460   Anisotropy =     5.8192

     27  H    Isotropic =    29.9567   Anisotropy =     9.2196

     28  H    Isotropic =    29.3801   Anisotropy =     9.1112

     29  H    Isotropic =    29.2936   Anisotropy =     6.8261

     30  H    Isotropic =    30.1644   Anisotropy =     9.9164

     31  H    Isotropic =    23.4939   Anisotropy =    11.4944

     32  H    Isotropic =    24.0471   Anisotropy =     3.6122

     33  H    Isotropic =    24.1551   Anisotropy =     7.3647

     34  H    Isotropic =    24.4841   Anisotropy =    15.6552

     35  H    Isotropic =    24.1843   Anisotropy =     9.0978

     36  H    Isotropic =    24.9439   Anisotropy =     4.2115

     37  H    Isotropic =    24.4254   Anisotropy =     3.1501

     38  H    Isotropic =    24.5675   Anisotropy =     6.9952

     39  H    Isotropic =    25.8259   Anisotropy =    12.4567

     40  P    Isotropic =   320.9910   Anisotropy =    66.0419

     41  C    Isotropic =    49.4705   Anisotropy =   165.2963

     42  C    Isotropic =    40.9766   Anisotropy =   196.8765

     43  C    Isotropic =    57.3183   Anisotropy =   174.3324

     44  C    Isotropic =    55.7868   Anisotropy =   176.5257

     45  C    Isotropic =    44.4058   Anisotropy =   167.8129

     46  C    Isotropic =    20.6754   Anisotropy =   130.1140

     47  C    Isotropic =    38.2107   Anisotropy =   208.4689

     48  C    Isotropic =    47.4377   Anisotropy =   200.6898

     49  C    Isotropic =    49.4466   Anisotropy =   193.8399

     50  C    Isotropic =    54.3392   Anisotropy =   185.0226

     51  C    Isotropic =    52.6044   Anisotropy =   186.5768

     52  C    Isotropic =    47.7786   Anisotropy =   190.9848

     53  C    Isotropic =    32.5614   Anisotropy =   208.7702

     54  C    Isotropic =    47.3232   Anisotropy =   182.6258

     55  C    Isotropic =    52.7093   Anisotropy =   184.9748

     56  C    Isotropic =    51.7048   Anisotropy =   184.7259

     57  C    Isotropic =    51.2536   Anisotropy =   184.4663

     58  C    Isotropic =    47.6797   Anisotropy =   189.1880

     59  H    Isotropic =    24.1809   Anisotropy =    10.2217

     60  H    Isotropic =    23.9760   Anisotropy =     8.9096

     61  H    Isotropic =    24.3624   Anisotropy =     5.5939

     62  H    Isotropic =    29.4093   Anisotropy =     9.0295

     63  H    Isotropic =    30.2989   Anisotropy =     9.4521

     64  H    Isotropic =    23.3879   Anisotropy =    10.5589

     65  H    Isotropic =    24.0735   Anisotropy =    14.1073

     66  H    Isotropic =    25.1821   Anisotropy =     9.8480

     67  H    Isotropic =    24.3999   Anisotropy =     5.6857

     68  H    Isotropic =    24.0027   Anisotropy =     3.1797

     69  H    Isotropic =    23.7956   Anisotropy =     4.7070

     70  H    Isotropic =    23.4862   Anisotropy =     9.2009

     71  H    Isotropic =    24.0707   Anisotropy =     7.0136

     72  H    Isotropic =    24.0418   Anisotropy =     3.7487

     73  H    Isotropic =    23.9531   Anisotropy =     6.2435

     74  H    Isotropic =    23.8616   Anisotropy =     5.7133

 Normal termination of Gaussian 09 at Sat Feb 12 14:28:48 2022.
 Gaussian 09:  ES64L-G09RevE.01 30-Nov-2015

 ----------------------------------------------------------------------
 # PBE1PBE/def2TZVP int=(grid=ultrafine) empiricaldispersion=GD3BJ pop=
 nbo guess=read geom=check
 ----------------------------------------------------------------------

 ----------------
 XantPhos_3 title
 ----------------
 Structure from the checkpoint file:  "XantPhos_3_SPE_NoPd.chk"
 Charge =  0 Multiplicity = 1

                         Standard orientation:
 ---------------------------------------------------------------------
 Center     Atomic      Atomic             Coordinates (Angstroms)
 Number     Number       Type             X           Y           Z
 ---------------------------------------------------------------------
      1         15           0        1.902937   -0.518196    0.907148
      2          6           0        2.326521    1.196444    0.363946
      3          6           0        3.599257    1.577320   -0.106708
      4          6           0        3.759154    2.802446   -0.768317
      5          6           0        2.658752    3.644672   -1.005211
      6          6           0        1.383048    3.307664   -0.527287
      7          6           0        1.277373    2.105938    0.190728
      8          8           0        0.052707    1.720713    0.694487
      9          6           0        0.085904    4.105539   -0.735169
     10          6           0        0.204292    5.098802   -1.900571
     11          6           0       -0.232321    4.885133    0.572715
     12          6           0        1.617657   -1.393456   -0.686495
     13          6           0        1.242534   -2.752330   -0.604314
     14          6           0        1.085006   -3.508519   -1.770234
     15          6           0        1.260569   -2.908048   -3.026324
     16          6           0        1.596967   -1.550591   -3.112331
     17          6           0        1.785761   -0.792709   -1.946765
     18          6           0        3.568904   -1.100180    1.427973
     19          6           0        4.195175   -0.439254    2.506191
     20          6           0        6.166170   -1.830645    2.219350
     21          6           0        5.489914   -0.800635    2.891474
     22          6           0        5.544807   -2.492086    1.153219
     23          6           0        4.250467   -2.127259    0.752802
     24          1           0        4.447238    0.898014    0.016908
     25          1           0        2.803126    4.567939   -1.574090
     26          1           0        4.748212    3.090890   -1.137104
     27          1           0        0.428736    4.588206   -2.852180
     28          1           0        1.000217    5.835132   -1.701433
     29          1           0       -0.320496    4.202443    1.432798
     30          1           0        0.571944    5.609941    0.785928
     31          1           0        3.664168    0.349656    3.045140
     32          1           0        7.176386   -2.116984    2.529532
     33          1           0        6.066767   -3.294941    0.622395
     34          1           0        3.778872   -2.641245   -0.088980
     35          1           0        1.073127   -3.206854    0.378642
     36          1           0        0.792150   -4.559926   -1.696684
     37          1           0        1.120903   -3.497124   -3.938551
     38          1           0        1.724033   -1.076453   -4.091281
     39          1           0        2.071622    0.260788   -2.019428
     40         15           0       -1.766314   -0.637349    0.813937
     41          6           0       -1.924869    0.862672   -0.271352
     42          6           0       -3.022312    1.057771   -1.136938
     43          6           0       -3.102997    2.211398   -1.924675
     44          6           0       -2.110161    3.204993   -1.852626
     45          6           0       -1.032266    3.072753   -0.967332
     46          6           0       -0.989117    1.898236   -0.192909
     47          6           0       -2.011389   -2.051515   -0.333374
     48          6           0       -1.989317   -1.922922   -1.733678
     49          6           0       -2.178661   -3.050795   -2.544400
     50          6           0       -2.384089   -4.310533   -1.966882
     51          6           0       -2.382409   -4.445271   -0.569312
     52          6           0       -2.191306   -3.325984    0.249065
     53          6           0       -3.387199   -0.445723    1.670993
     54          6           0       -3.460081    0.453234    2.752191
     55          6           0       -5.861874    0.111698    2.873852
     56          6           0       -4.694145    0.731880    3.346474
     57          6           0       -5.789064   -0.788373    1.803696
     58          6           0       -4.554791   -1.066855    1.197000
     59          1           0       -3.808583    0.299190   -1.193627
     60          1           0       -2.193987    4.093618   -2.485132
     61          1           0       -3.951484    2.343917   -2.602868
     62          1           0       -0.732108    5.667999   -2.020366
     63          1           0       -1.184021    5.432808    0.464348
     64          1           0       -2.543188    0.904930    3.144692
     65          1           0       -4.501095   -1.779434    0.368200
     66          1           0       -1.810378   -0.948501   -2.195538
     67          1           0       -2.155256   -2.940807   -3.633561
     68          1           0       -2.536108   -5.188566   -2.603463
     69          1           0       -2.529973   -5.428371   -0.110318
     70          1           0       -2.174745   -3.425294    1.341138
     71          1           0       -6.694409   -1.284747    1.438655
     72          1           0       -6.825757    0.324396    3.347441
     73          1           0       -4.742593    1.422455    4.194569
     74          1           0        5.966496   -0.285056    3.731249
 ---------------------------------------------------------------------

 SCF Done:  E(RPBE1PBE) =  -2261.89489501     A.U. after    2 cycles

 The electronic state is 1-A.
 Alpha  occ. eigenvalues --  -77.20013 -77.19841 -19.24980 -10.29259 -10.29138
 Alpha  occ. eigenvalues --  -10.26685 -10.24580 -10.24544 -10.24001 -10.23956
 Alpha  occ. eigenvalues --  -10.23951 -10.23933 -10.23872 -10.23790 -10.23636
 Alpha  occ. eigenvalues --  -10.23530 -10.23491 -10.23448 -10.23361 -10.23279
 Alpha  occ. eigenvalues --  -10.23198 -10.23146 -10.23122 -10.23080 -10.23051
 Alpha  occ. eigenvalues --  -10.23009 -10.22977 -10.22962 -10.22943 -10.22912
 Alpha  occ. eigenvalues --  -10.22908 -10.22904 -10.22878 -10.22837 -10.22834
 Alpha  occ. eigenvalues --  -10.22777 -10.22771 -10.22703 -10.22636 -10.22572
 Alpha  occ. eigenvalues --  -10.22467 -10.22094  -6.59567  -6.59397  -4.73180
 Alpha  occ. eigenvalues --   -4.73133  -4.73013  -4.72967  -4.72693  -4.72518
 Alpha  occ. eigenvalues --   -1.11916  -0.89275  -0.89078  -0.88068  -0.87649
 Alpha  occ. eigenvalues --   -0.87404  -0.87166  -0.84464  -0.79620  -0.78865
 Alpha  occ. eigenvalues --   -0.78098  -0.76899  -0.76728  -0.76545  -0.76424
 Alpha  occ. eigenvalues --   -0.76305  -0.76092  -0.75824  -0.75579  -0.74653
 Alpha  occ. eigenvalues --   -0.71507  -0.67356  -0.66696  -0.65203  -0.65158
 Alpha  occ. eigenvalues --   -0.62423  -0.62289  -0.61992  -0.61735  -0.61201
 Alpha  occ. eigenvalues --   -0.61013  -0.60951  -0.60409  -0.57965  -0.57298
 Alpha  occ. eigenvalues --   -0.56289  -0.55775  -0.52984  -0.52755  -0.51851
 Alpha  occ. eigenvalues --   -0.51298  -0.50656  -0.49400  -0.49009  -0.47742
 Alpha  occ. eigenvalues --   -0.47398  -0.46731  -0.46602  -0.46519  -0.46313
 Alpha  occ. eigenvalues --   -0.46226  -0.45967  -0.45876  -0.45660  -0.45470
 Alpha  occ. eigenvalues --   -0.45177  -0.43371  -0.43208  -0.43086  -0.42981
 Alpha  occ. eigenvalues --   -0.42738  -0.42525  -0.41914  -0.41766  -0.41377
 Alpha  occ. eigenvalues --   -0.40244  -0.40037  -0.39614  -0.39423  -0.38905
 Alpha  occ. eigenvalues --   -0.38466  -0.38430  -0.38187  -0.37743  -0.37524
 Alpha  occ. eigenvalues --   -0.36881  -0.36745  -0.36102  -0.35596  -0.35374
 Alpha  occ. eigenvalues --   -0.35211  -0.35129  -0.34936  -0.34827  -0.33439
 Alpha  occ. eigenvalues --   -0.33266  -0.32932  -0.31974  -0.29395  -0.28125
 Alpha  occ. eigenvalues --   -0.27799  -0.27161  -0.26914  -0.26596  -0.26400
 Alpha  occ. eigenvalues --   -0.26094  -0.25934  -0.25696  -0.25413  -0.24222
 Alpha  occ. eigenvalues --   -0.22301  -0.20068
 Alpha virt. eigenvalues --   -0.03732  -0.02656  -0.02305  -0.02008  -0.01980
 Alpha virt. eigenvalues --   -0.01400  -0.01275  -0.00698  -0.00219  -0.00062
 Alpha virt. eigenvalues --    0.00200   0.00261   0.04048   0.04326   0.05426

 Mulliken charges:
               1
     1  P    0.109425
     2  C   -0.237865
     3  C   -0.099734
     4  C   -0.169836
     5  C   -0.169540
     6  C   -0.005375
     7  C    0.230578
     8  O   -0.250229
     9  C    0.272652
    10  C   -0.445254
    11  C   -0.410844
    12  C    0.044747
    13  C   -0.188433
    14  C   -0.048307
    15  C   -0.116459
    16  C   -0.165112
    17  C   -0.146702
    18  C    0.103571
    19  C   -0.210486
    20  C   -0.114459
    21  C   -0.110321
    22  C   -0.152983
    23  C   -0.163344
    24  H    0.151302
    25  H    0.117695
    26  H    0.115337
    27  H    0.151457
    28  H    0.134462
    29  H    0.151204
    30  H    0.126166
    31  H    0.117548
    32  H    0.115705
    33  H    0.115111
    34  H    0.150695
    35  H    0.111128
    36  H    0.115866
    37  H    0.111060
    38  H    0.112384
    39  H    0.149894
    40  P    0.080427
    41  C   -0.097046
    42  C   -0.176582
    43  C   -0.129212
    44  C   -0.191969
    45  C   -0.000952
    46  C    0.227995
    47  C    0.090176
    48  C   -0.100589
    49  C   -0.141413
    50  C   -0.139525
    51  C   -0.107036
    52  C   -0.234044
    53  C    0.135309
    54  C   -0.245025
    55  C   -0.122088
    56  C   -0.099486
    57  C   -0.127160
    58  C   -0.221794
    59  H    0.131276
    60  H    0.117632
    61  H    0.115342
    62  H    0.134045
    63  H    0.127606
    64  H    0.129223
    65  H    0.153786
    66  H    0.156668
    67  H    0.109358
    68  H    0.115043
    69  H    0.118476
    70  H    0.122078
    71  H    0.116048
    72  H    0.116791
    73  H    0.117133
    74  H    0.116805
 Sum of Mulliken charges =  -0.00000

 Dipole moment (field-independent basis, Debye):
    X=             -0.4805    Y=              1.1921    Z=             -2.6339  Tot=              2.9308
 Quadrupole moment (field-independent basis, Debye-Ang):
   XX=           -246.2056   YY=           -235.1831   ZZ=           -249.1285
   XY=              2.9573   XZ=              1.0772   YZ=              2.2091

 Summary of Natural Population Analysis:

                                       Natural Population
                Natural  -----------------------------------------------
    Atom  No    Charge         Core      Valence    Rydberg      Total
 -----------------------------------------------------------------------
      P    1    0.85270      9.99787     4.12023    0.02920    14.14730
      C    2   -0.35071      1.99888     4.32141    0.03042     6.35071
      C    3   -0.19250      1.99912     4.17409    0.01929     6.19250
      C    4   -0.22607      1.99923     4.20916    0.01768     6.22607
      C    5   -0.19925      1.99913     4.18262    0.01750     6.19925
      C    6   -0.05773      1.99892     4.03833    0.02048     6.05773
      C    7    0.28403      1.99858     3.69432    0.02307     5.71597
      O    8   -0.45415      1.99973     6.43088    0.02354     8.45415
      C    9   -0.07487      1.99929     4.05736    0.01821     6.07487
      C   10   -0.61691      1.99944     4.60459    0.01288     6.61691
      C   11   -0.60128      1.99940     4.59023    0.01165     6.60128
      C   12   -0.32524      1.99903     4.29513    0.03107     6.32524
      C   13   -0.21261      1.99910     4.19327    0.02024     6.21261
      C   14   -0.20777      1.99920     4.18964    0.01893     6.20777
      C   15   -0.21281      1.99921     4.19568    0.01792     6.21281
      C   16   -0.21382      1.99921     4.19689    0.01772     6.21382
      C   17   -0.21724      1.99910     4.19916    0.01899     6.21724
      C   18   -0.32040      1.99905     4.29061    0.03074     6.32040
      C   19   -0.21572      1.99912     4.19739    0.01922     6.21572
      C   20   -0.22356      1.99922     4.20581    0.01854     6.22356
      C   21   -0.21033      1.99921     4.19322    0.01790     6.21033
      C   22   -0.20793      1.99921     4.19074    0.01798     6.20793
      C   23   -0.22258      1.99910     4.20419    0.01928     6.22258
      H   24    0.23530      0.00000     0.76279    0.00190     0.76470
      H   25    0.22013      0.00000     0.77847    0.00139     0.77987
      H   26    0.22030      0.00000     0.77851    0.00119     0.77970
      H   27    0.22356      0.00000     0.77541    0.00104     0.77644
      H   28    0.21800      0.00000     0.78092    0.00108     0.78200
      H   29    0.22644      0.00000     0.77263    0.00093     0.77356
      H   30    0.21429      0.00000     0.78468    0.00103     0.78571
      H   31    0.22184      0.00000     0.77652    0.00164     0.77816
      H   32    0.21672      0.00000     0.78211    0.00117     0.78328
      H   33    0.21650      0.00000     0.78223    0.00127     0.78350
      H   34    0.23012      0.00000     0.76797    0.00191     0.76988
      H   35    0.22861      0.00000     0.76934    0.00205     0.77139
      H   36    0.22204      0.00000     0.77641    0.00155     0.77796
      H   37    0.21697      0.00000     0.78180    0.00123     0.78303
      H   38    0.21704      0.00000     0.78167    0.00128     0.78296
      H   39    0.22962      0.00000     0.76825    0.00212     0.77038
      P   40    0.84748      9.99789     4.12573    0.02890    14.15252
      C   41   -0.34317      1.99887     4.31403    0.03027     6.34317
      C   42   -0.18747      1.99913     4.16924    0.01909     6.18747
      C   43   -0.22848      1.99922     4.21157    0.01769     6.22848
      C   44   -0.19382      1.99913     4.17727    0.01743     6.19382
      C   45   -0.05906      1.99893     4.03986    0.02027     6.05906
      C   46    0.28460      1.99859     3.69372    0.02310     5.71540
      C   47   -0.32503      1.99905     4.29403    0.03194     6.32503
      C   48   -0.21833      1.99909     4.19848    0.02077     6.21833
      C   49   -0.20400      1.99921     4.18562    0.01917     6.20400
      C   50   -0.22551      1.99921     4.20763    0.01867     6.22551
      C   51   -0.21456      1.99921     4.19754    0.01781     6.21456
      C   52   -0.21978      1.99910     4.20172    0.01896     6.21978
      C   53   -0.31099      1.99904     4.28073    0.03121     6.31099
      C   54   -0.20930      1.99911     4.19085    0.01935     6.20930
      C   55   -0.21705      1.99922     4.19948    0.01836     6.21705
      C   56   -0.20805      1.99921     4.19101    0.01783     6.20805
      C   57   -0.20990      1.99921     4.19261    0.01808     6.20990
      C   58   -0.22318      1.99910     4.20493    0.01915     6.22318
      H   59    0.22947      0.00000     0.76862    0.00190     0.77053
      H   60    0.21971      0.00000     0.77890    0.00139     0.78029
      H   61    0.21960      0.00000     0.77920    0.00119     0.78040
      H   62    0.21814      0.00000     0.78077    0.00109     0.78186
      H   63    0.21477      0.00000     0.78420    0.00103     0.78523
      H   64    0.22436      0.00000     0.77399    0.00165     0.77564
      H   65    0.22762      0.00000     0.77044    0.00195     0.77238
      H   66    0.23287      0.00000     0.76472    0.00242     0.76713
      H   67    0.21862      0.00000     0.78006    0.00132     0.78138
      H   68    0.21770      0.00000     0.78113    0.00117     0.78230
      H   69    0.21876      0.00000     0.77998    0.00125     0.78124
      H   70    0.22453      0.00000     0.77384    0.00163     0.77547
      H   71    0.21634      0.00000     0.78237    0.00129     0.78366
      H   72    0.21711      0.00000     0.78172    0.00117     0.78289
      H   73    0.21778      0.00000     0.78098    0.00124     0.78222
      H   74    0.21748      0.00000     0.78126    0.00126     0.78252
 =======================================================================
   * Total *    0.00000     99.96086   203.11291    0.92624   304.00000

 Normal termination of Gaussian 09 at Sat Feb 12 14:37:55 2022.
